TITLE = "Z = sin(YX)"
VARIABLES = "X" "Y" "Z"
ZONE T = "Frame1"
I I = 11, J = 6, K =  F = POINT

1.000000	0.000000	0.000000
1.100000	0.000000	0.000000
1.200000	0.000000	0.000000
1.300000	0.000000	0.000000
1.400000	0.000000	0.000000
1.500000	0.000000	0.000000
1.600000	0.000000	0.000000
1.700000	0.000000	0.000000
1.800000	0.000000	0.000000
1.900000	0.000000	0.000000
2.000000	0.000000	0.000000
1.000000	0.200000	0.198669
1.100000	0.200000	0.218230
1.200000	0.200000	0.237703
1.300000	0.200000	0.257081
1.400000	0.200000	0.276356
1.500000	0.200000	0.295520
1.600000	0.200000	0.314567
1.700000	0.200000	0.333487
1.800000	0.200000	0.352274
1.900000	0.200000	0.370920
2.000000	0.200000	0.389418
1.000000	0.400000	0.389418
1.100000	0.400000	0.425939
1.200000	0.400000	0.461779
1.300000	0.400000	0.496880
1.400000	0.400000	0.531186
1.500000	0.400000	0.564642
1.600000	0.400000	0.597195
1.700000	0.400000	0.628793
1.800000	0.400000	0.659385
1.900000	0.400000	0.688921
2.000000	0.400000	0.717356
1.000000	0.600000	0.564642
1.100000	0.600000	0.613117
1.200000	0.600000	0.659385
1.300000	0.600000	0.703279
1.400000	0.600000	0.744643
1.500000	0.600000	0.783327
1.600000	0.600000	0.819192
1.700000	0.600000	0.852108
1.800000	0.600000	0.881958
1.900000	0.600000	0.908633
2.000000	0.600000	0.932039
1.000000	0.800000	0.717356
1.100000	0.800000	0.770739
1.200000	0.800000	0.819192
1.300000	0.800000	0.862404
1.400000	0.800000	0.900100
1.500000	0.800000	0.932039
1.600000	0.800000	0.958016
1.700000	0.800000	0.977865
1.800000	0.800000	0.991458
1.900000	0.800000	0.998710
2.000000	0.800000	0.999574
1.000000	1.000000	0.841471
1.100000	1.000000	0.891207
1.200000	1.000000	0.932039
1.300000	1.000000	0.963558
1.400000	1.000000	0.985450
1.500000	1.000000	0.997495
1.600000	1.000000	0.999574
1.700000	1.000000	0.991665
1.800000	1.000000	0.973848
1.900000	1.000000	0.946300
2.000000	1.000000	0.909297
