TITLE = "DG_bgk1D_ERK results"
VARIABLES = "X" "R1" "U1" "R2" "U2" "R3" "U3" "R4" "U4"
ZONE T = "Final Time 0.10"
I = 256, J = 1, K = 1, F = POINT

0.000620	0.999796	0.998995
0.994016	0.984410	0.748929
0.744245	0.715444	0.658298
0.003177	0.999795	0.998995
0.994016	0.984410	0.748936
0.744245	0.715444	0.658297
0.007414	0.999794	0.998995
0.994016	0.984409	0.748938
0.744245	0.715444	0.658297
0.012759	0.999797	0.998995
0.994016	0.984409	0.748926
0.744246	0.715444	0.658297
0.018491	0.999794	0.998995
0.994016	0.984409	0.748940
0.744246	0.715444	0.658296
0.023836	0.999791	0.998995
0.994016	0.984409	0.748956
0.744246	0.715444	0.658296
0.028073	0.999797	0.998995
0.994016	0.984409	0.748927
0.744246	0.715444	0.658296
0.030630	0.999800	0.998995
0.994015	0.984409	0.748911
0.744246	0.715444	0.658296
0.031870	0.999800	0.998995
0.994015	0.984409	0.748912
0.744246	0.715443	0.658296
0.034427	0.999794	0.998995
0.994015	0.984409	0.748942
0.744246	0.715443	0.658295
0.038664	0.999773	0.998995
0.994015	0.984408	0.749053
0.744246	0.715443	0.658295
0.044009	0.999751	0.998995
0.994015	0.984408	0.749171
0.744246	0.715443	0.658295
0.049741	0.999743	0.998995
0.994015	0.984408	0.749216
0.744247	0.715443	0.658295
0.055086	0.999736	0.998995
0.994015	0.984408	0.749242
0.744247	0.715443	0.658295
0.059323	0.999738	0.998995
0.994015	0.984408	0.749234
0.744247	0.715443	0.658295
0.061880	0.999742	0.998995
0.994015	0.984408	0.749220
0.744247	0.715443	0.658295
0.063120	0.999741	0.998995
0.994015	0.984408	0.749222
0.744247	0.715443	0.658295
0.065677	0.999735	0.998995
0.994015	0.984408	0.749251
0.744247	0.715443	0.658295
0.069914	0.999721	0.998995
0.994015	0.984408	0.749312
0.744248	0.715443	0.658294
0.075259	0.999727	0.998995
0.994015	0.984408	0.749285
0.744248	0.715443	0.658294
0.080991	0.999728	0.998994
0.994015	0.984408	0.749282
0.744249	0.715443	0.658294
0.086336	0.999701	0.998994
0.994015	0.984408	0.749402
0.744250	0.715443	0.658294
0.090573	0.999708	0.998994
0.994015	0.984408	0.749374
0.744250	0.715443	0.658294
0.093130	0.999724	0.998994
0.994015	0.984408	0.749302
0.744251	0.715443	0.658294
0.094370	0.999729	0.998994
0.994015	0.984408	0.749280
0.744251	0.715443	0.658294
0.096927	0.999724	0.998994
0.994015	0.984408	0.749293
0.744252	0.715443	0.658294
0.101164	0.999682	0.998993
0.994015	0.984408	0.749488
0.744253	0.715443	0.658294
0.106509	0.999576	0.998993
0.994015	0.984408	0.749996
0.744255	0.715443	0.658294
0.112241	0.999457	0.998992
0.994015	0.984408	0.750532
0.744258	0.715443	0.658294
0.117586	0.999430	0.998991
0.994015	0.984408	0.750642
0.744262	0.715443	0.658294
0.121823	0.999449	0.998990
0.994015	0.984408	0.750563
0.744265	0.715443	0.658294
0.124380	0.999431	0.998989
0.994015	0.984408	0.750632
0.744268	0.715443	0.658294
0.125620	0.999416	0.998989
0.994015	0.984408	0.750694
0.744269	0.715443	0.658294
0.128177	0.999376	0.998988
0.994015	0.984408	0.750857
0.744273	0.715443	0.658294
0.132414	0.999357	0.998986
0.994015	0.984408	0.750944
0.744279	0.715443	0.658294
0.137759	0.999367	0.998984
0.994015	0.984408	0.750900
0.744289	0.715443	0.658294
0.143491	0.999302	0.998980
0.994015	0.984408	0.751157
0.744303	0.715443	0.658294
0.148836	0.999250	0.998975
0.994015	0.984408	0.751385
0.744320	0.715443	0.658294
0.153073	0.999280	0.998970
0.994015	0.984408	0.751250
0.744337	0.715443	0.658294
0.155630	0.999284	0.998967
0.994015	0.984408	0.751215
0.744349	0.715443	0.658294
0.156870	0.999277	0.998965
0.994015	0.984408	0.751241
0.744356	0.715443	0.658294
0.159427	0.999234	0.998960
0.994015	0.984408	0.751435
0.744370	0.715443	0.658294
0.163664	0.998963	0.998952
0.994015	0.984408	0.752564
0.744399	0.715443	0.658294
0.169009	0.998451	0.998939
0.994015	0.984408	0.754603
0.744446	0.715443	0.658294
0.174741	0.998218	0.998919
0.994015	0.984408	0.755527
0.744512	0.715443	0.658294
0.180086	0.998212	0.998896
0.994015	0.984408	0.755533
0.744591	0.715443	0.658294
0.184323	0.998037	0.998872
0.994015	0.984408	0.756153
0.744671	0.715443	0.658294
0.186880	0.997947	0.998855
0.994015	0.984408	0.756496
0.744727	0.715443	0.658294
0.188120	0.997923	0.998846
0.994015	0.984408	0.756599
0.744757	0.715443	0.658294
0.190677	0.997905	0.998826
0.994015	0.984408	0.756678
0.744824	0.715443	0.658294
0.194914	0.997863	0.998786
0.994015	0.984408	0.756809
0.744955	0.715443	0.658294
0.200259	0.997639	0.998724
0.994015	0.984408	0.757626
0.745161	0.715443	0.658294
0.205991	0.997439	0.998636
0.994015	0.984408	0.758366
0.745444	0.715443	0.658294
0.211336	0.997492	0.998531
0.994015	0.984408	0.758137
0.745782	0.715443	0.658294
0.215573	0.997309	0.998428
0.994015	0.984408	0.758844
0.746111	0.715443	0.658294
0.218130	0.996854	0.998356
0.994015	0.984407	0.760506
0.746340	0.715443	0.658295
0.219370	0.996535	0.998318
0.994015	0.984407	0.761638
0.746461	0.715443	0.658295
0.221927	0.995716	0.998232
0.994015	0.984408	0.764478
0.746731	0.715443	0.658294
0.226164	0.994649	0.998067
0.994015	0.984408	0.768189
0.747247	0.715443	0.658294
0.231509	0.994251	0.997814
0.994015	0.984407	0.769596
0.748035	0.715443	0.658295
0.237241	0.993911	0.997473
0.994015	0.984408	0.770631
0.749082	0.715443	0.658293
0.242586	0.993321	0.997078
0.994015	0.984408	0.772560
0.750283	0.715443	0.658295
0.246823	0.993214	0.996704
0.994015	0.984407	0.772988
0.751413	0.715443	0.658296
0.249380	0.993047	0.996448
0.994015	0.984409	0.773486
0.752180	0.715443	0.658292
0.250620	0.992909	0.996315
0.994015	0.984410	0.773901
0.752578	0.715443	0.658290
0.253177	0.992574	0.996022
0.994015	0.984409	0.774997
0.753450	0.715443	0.658292
0.257414	0.991959	0.995476
0.994015	0.984406	0.777001
0.755065	0.715444	0.658298
0.262759	0.991846	0.994668
0.994014	0.984409	0.777339
0.757434	0.715447	0.658291
0.268491	0.991447	0.993634
0.994010	0.984408	0.778695
0.760431	0.715458	0.658294
0.273836	0.988542	0.992494
0.993998	0.984405	0.787717
0.763705	0.715488	0.658301
0.278073	0.985340	0.991456
0.993977	0.984414	0.797328
0.766658	0.715544	0.658281
0.280630	0.984274	0.990769
0.993954	0.984412	0.800595
0.768600	0.715603	0.658284
0.281870	0.984001	0.990419
0.993940	0.984409	0.801468
0.769588	0.715642	0.658292
0.284427	0.983826	0.989661
0.993898	0.984399	0.802070
0.771717	0.715750	0.658313
0.288664	0.983166	0.988291
0.993782	0.984409	0.803849
0.775537	0.716049	0.658292
0.294009	0.981850	0.986352
0.993501	0.984415	0.807549
0.780900	0.716768	0.658279
0.299741	0.981121	0.983996
0.992917	0.984396	0.809840
0.787350	0.718247	0.658321
0.305086	0.979914	0.981528
0.991959	0.984418	0.813202
0.794042	0.720643	0.658270
0.309323	0.978316	0.979379
0.990812	0.984429	0.817653
0.799824	0.723489	0.658253
0.311880	0.978062	0.977998
0.989919	0.984395	0.818482
0.803518	0.725692	0.658322
0.313120	0.978057	0.977304
0.989425	0.984383	0.818555
0.805368	0.726906	0.658346
0.315677	0.978164	0.975827
0.988275	0.984384	0.818263
0.809294	0.729722	0.658344
0.319914	0.977305	0.973235
0.985957	0.984441	0.820791
0.816149	0.735371	0.658222
0.325259	0.971278	0.969699
0.982255	0.984411	0.837006
0.825427	0.744328	0.658287
0.330991	0.963230	0.965580
0.977309	0.984369	0.858153
0.836145	0.756213	0.658384
0.336336	0.961074	0.961440
0.971818	0.984110	0.863931
0.846827	0.769331	0.658944
0.340573	0.960409	0.957955
0.966907	0.982811	0.865694
0.855757	0.781018	0.661799
0.343130	0.958677	0.955766
0.963721	0.981138	0.869699
0.861342	0.788579	0.665412
0.344370	0.957898	0.954680
0.962118	0.980073	0.871547
0.864105	0.792379	0.667691
0.346927	0.956941	0.952395
0.958705	0.977395	0.874093
0.869901	0.800462	0.673476
0.351164	0.956554	0.948474
0.952744	0.971682	0.875613
0.879809	0.814554	0.685739
0.356509	0.953746	0.943284
0.944736	0.962912	0.882354
0.892839	0.833447	0.704520
0.362241	0.950756	0.937434
0.935629	0.952346	0.889727
0.907430	0.854894	0.727116
0.367586	0.951242	0.931727
0.926731	0.941815	0.889248
0.921569	0.875822	0.749632
0.371823	0.947558	0.927036
0.919444	0.933137	0.897787
0.933128	0.892948	0.768176
0.374380	0.942208	0.924135
0.914960	0.927786	0.910445
0.940249	0.903484	0.779604
0.375620	0.939239	0.922709
0.912762	0.925165	0.917490
0.943742	0.908648	0.785208
0.378177	0.931941	0.919734
0.908192	0.919723	0.934183
0.951012	0.919381	0.796864
0.382414	0.923340	0.914706
0.900510	0.910552	0.953780
0.963251	0.937421	0.816467
0.387759	0.920933	0.908204
0.890653	0.898790	0.959533
0.978996	0.960569	0.841640
0.393491	0.918319	0.901048
0.879920	0.885975	0.965081
0.996222	0.985778	0.869097
0.398836	0.913877	0.894223
0.869799	0.873870	0.974869
1.012556	1.009556	0.895052
0.403073	0.913552	0.888727
0.861725	0.864199	0.976194
1.025644	1.028533	0.915825
0.405630	0.911879	0.885376
0.856837	0.858331	0.979869
1.033596	1.040024	0.928438
0.406870	0.910835	0.883741
0.854462	0.855473	0.982259
1.037467	1.045608	0.934577
0.409427	0.906928	0.880356
0.849567	0.849576	0.990083
1.045466	1.057122	0.947259
0.413664	0.905155	0.874712
0.841455	0.839783	0.994065
1.058756	1.076208	0.968360
0.419009	0.906003	0.867539
0.831249	0.827383	0.993685
1.075558	1.100237	0.995107
0.424741	0.889853	0.859790
0.820385	0.814066	1.025822
1.093587	1.125834	1.023884
0.430086	0.868245	0.852544
0.810382	0.801670	1.069830
1.110322	1.149416	1.050737
0.434323	0.862373	0.846821
0.802584	0.791879	1.081797
1.123457	1.167815	1.071985
0.436880	0.859216	0.843378
0.797948	0.785990	1.087129
1.131320	1.178755	1.084776
0.438120	0.858861	0.841711
0.795721	0.783141	1.087694
1.135115	1.184013	1.090971
0.440677	0.859601	0.838289
0.791184	0.777291	1.086979
1.142889	1.194725	1.103700
0.444914	0.855572	0.832646
0.783845	0.767680	1.094646
1.155632	1.212059	1.124656
0.450259	0.849742	0.825603
0.774974	0.755742	1.105552
1.171407	1.233018	1.150728
0.455991	0.848023	0.818169
0.766069	0.743291	1.109691
1.187876	1.254063	1.177996
0.461336	0.839865	0.811360
0.758467	0.732181	1.124228
1.202770	1.272030	1.202394
0.465573	0.838302	0.806068
0.753006	0.724042	1.127704
1.214206	1.284936	1.220298
0.468130	0.842665	0.802923
0.749976	0.719709	1.121209
1.220936	1.292096	1.229844
0.469370	0.841258	0.801407
0.748581	0.717839	1.123840
1.224161	1.295394	1.233966
0.471927	0.831427	0.798304
0.745866	0.714678	1.140644
1.230718	1.301812	1.240968
0.476164	0.804201	0.793233
0.741843	0.711177	1.187868
1.241297	1.311327	1.248743
0.481509	0.782820	0.786989
0.737600	0.709891	1.226089
1.254064	1.321378	1.251713
0.487241	0.779405	0.780479
0.733999	0.711234	1.231061
1.267024	1.329943	1.248915
0.492586	0.773809	0.774550
0.731392	0.711744	1.240272
1.278463	1.336186	1.248012
0.496823	0.769580	0.769932
0.729738	0.710136	1.247143
1.287092	1.340179	1.251665
0.499380	0.767158	0.767173
0.728883	0.709031	1.251054
1.292119	1.342259	1.254143
0.500620	0.765800	0.765839
0.728501	0.708613	1.253251
1.294511	1.343192	1.255089
0.503177	0.763367	0.763101
0.727773	0.708023	1.257190
1.299343	1.344978	1.256416
0.507414	0.759071	0.758580
0.726716	0.707887	1.264121
1.307078	1.347592	1.256750
0.512759	0.753214	0.752865
0.725586	0.708251	1.273400
1.316391	1.350418	1.255952
0.518491	0.750130	0.746660
0.724556	0.708491	1.279075
1.325885	1.353016	1.255396
0.523836	0.724275	0.740704
0.723720	0.708280	1.316812
1.334385	1.355140	1.255787
0.528073	0.690131	0.735808
0.723122	0.707843	1.369062
1.340927	1.356662	1.256640
0.530630	0.677344	0.732767
0.722784	0.707580	1.389124
1.344795	1.357525	1.257138
0.531870	0.675281	0.731266
0.722625	0.707466	1.391977
1.346652	1.357930	1.257351
0.534427	0.680147	0.728115
0.722306	0.707226	1.382580
1.350444	1.358739	1.257784
0.538664	0.677344	0.722662
0.721801	0.706870	1.385437
1.356691	1.360016	1.258349
0.544009	0.665863	0.715303
0.721197	0.706558	1.402269
1.364554	1.361530	1.258656
0.549741	0.662401	0.706713
0.720580	0.706247	1.405463
1.373032	1.363049	1.258899
0.555086	0.653397	0.697917
0.720025	0.705661	1.417654
1.381085	1.364381	1.259642
0.559323	0.646951	0.690332
0.719593	0.705040	1.426210
1.387615	1.365386	1.260449
0.561880	0.647498	0.685470
0.719334	0.704679	1.424354
1.391630	1.365975	1.260885
0.563120	0.647108	0.683026
0.719207	0.704503	1.425137
1.393604	1.366257	1.261116
0.565677	0.642786	0.677813
0.718945	0.704082	1.432164
1.397729	1.366831	1.261656
0.569914	0.632085	0.668621
0.718498	0.703497	1.444790
1.404736	1.367763	1.262299
0.575259	0.590247	0.655962
0.717893	0.702616	1.494474
1.413926	1.368913	1.262930
0.580991	0.557946	0.641044
0.717122	0.701600	1.535589
1.424184	1.370134	1.263765
0.586336	0.557709	0.625875
0.716128	0.700651	1.531811
1.434108	1.371303	1.264801
0.590573	0.553269	0.612975
0.714915	0.699440	1.535694
1.442226	1.372310	1.265775
0.593130	0.545033	0.604821
0.713849	0.698636	1.546111
1.447224	1.372987	1.266026
0.594370	0.542417	0.600768
0.713199	0.698198	1.548807
1.449671	1.373343	1.266476
0.596927	0.538313	0.592228
0.711490	0.697179	1.552912
1.454751	1.374154	1.267148
0.601164	0.536476	0.577541
0.707081	0.696839	1.552819
1.463259	1.375806	1.267739
0.606509	0.525253	0.558137
0.696963	0.694782	1.563761
1.474088	1.378696	1.268939
0.612241	0.519119	0.536447
0.677013	0.690461	1.571058
1.485647	1.383192	1.270022
0.617586	0.512137	0.515612
0.646788	0.691558	1.576666
1.496194	1.388825	1.271375
0.621823	0.487667	0.498823
0.614322	0.681230	1.596707
1.504260	1.394035	1.273066
0.624380	0.466111	0.488632
0.591628	0.657983	1.614141
1.508945	1.397278	1.274843
0.625620	0.456702	0.483682
0.579972	0.640552	1.620975
1.511157	1.398823	1.275935
0.628177	0.439550	0.473497
0.555055	0.595154	1.633517
1.515572	1.401833	1.277175
0.632414	0.427905	0.456724
0.512798	0.512867	1.642270
1.522406	1.405863	1.278243
0.637759	0.427995	0.435893
0.461982	0.449696	1.638320
1.530025	1.408065	1.272663
0.643491	0.417480	0.414169
0.414991	0.418070	1.644105
1.536712	1.405429	1.261647
0.648836	0.407911	0.394690
0.379582	0.390718	1.650021
1.541309	1.397641	1.245815
0.653073	0.405176	0.379894
0.356750	0.367837	1.648031
1.543683	1.387867	1.226957
0.655630	0.401245	0.371265
0.344830	0.354435	1.648739
1.544535	1.380525	1.212559
0.656870	0.398588	0.367161
0.339471	0.347322	1.650355
1.544783	1.376596	1.204521
0.659427	0.392954	0.358889
0.329196	0.332444	1.654640
1.544945	1.367779	1.185917
0.663664	0.390516	0.345743
0.314039	0.307747	1.656214
1.544143	1.351162	1.147139
0.669009	0.381242	0.330168
0.297391	0.277290	1.656563
1.541169	1.326905	1.083944
0.674741	0.345934	0.314732
0.281686	0.247585	1.652660
1.535482	1.297171	1.000443
0.680086	0.317778	0.301530
0.268514	0.224384	1.642270
1.527864	1.266316	0.913901
0.684323	0.313285	0.291871
0.258910	0.209303	1.637588
1.520301	1.239969	0.844669
0.686880	0.313963	0.286369
0.253440	0.201548	1.637485
1.515111	1.223362	0.804226
0.688120	0.313849	0.283785
0.250871	0.198172	1.636841
1.512426	1.215130	0.785062
0.690677	0.312344	0.278633
0.245748	0.191831	1.634642
1.506561	1.197852	0.746639
0.694914	0.304442	0.270591
0.237755	0.182982	1.628578
1.495892	1.168422	0.687541
0.700259	0.298634	0.261289
0.228519	0.174002	1.623649
1.480868	1.130259	0.621595
0.705991	0.294257	0.252282
0.219610	0.166552	1.615743
1.463022	1.088655	0.559507
0.711336	0.287686	0.244707
0.212169	0.161215	1.608968
1.444977	1.049786	0.509531
0.715573	0.284921	0.239221
0.206821	0.157722	1.607847
1.429853	1.019241	0.475392
0.718130	0.283774	0.236114
0.203812	0.155895	1.605063
1.420419	1.001006	0.455655
0.719370	0.281928	0.234659
0.202407	0.155138	1.600909
1.415762	0.992221	0.445667
0.721927	0.275009	0.231762
0.199626	0.153481	1.586007
1.406019	0.974287	0.428249
0.726164	0.254370	0.227249
0.195329	0.150848	1.536791
1.389477	0.945102	0.402374
0.731509	0.234096	0.222036
0.190416	0.148175	1.472065
1.368041	0.909368	0.369302
0.737241	0.231080	0.216975
0.185711	0.145864	1.457878
1.344525	0.872541	0.340975
0.742586	0.230616	0.212680
0.181786	0.143977	1.454835
1.322183	0.839665	0.314263
0.746823	0.226006	0.209528
0.178956	0.142624	1.435146
1.304228	0.814653	0.292220
0.749380	0.223483	0.207725
0.177355	0.141353	1.423844
1.293304	0.800010	0.289236
0.750620	0.222604	0.206874
0.176607	0.141307	1.420254
1.287980	0.793003	0.280124
0.753177	0.221595	0.205171
0.175120	0.141371	1.415675
1.276966	0.778804	0.277638
0.757414	0.220514	0.202479
0.172799	0.137068	1.407860
1.258580	0.756067	0.219024
0.762759	0.215901	0.199288
0.170110	0.125470	1.384292
1.235122	0.728514	0.010992
0.768491	0.213914	0.196085
0.167484	0.124760	1.376320
1.209624	0.700296	-0.001996
0.773836	0.210079	0.193264
0.165229	0.125820	1.351045
1.185442	0.675095	0.017019
0.778073	0.199399	0.191119
0.163552	0.123403	1.277021
1.165919	0.655382	-0.025917
0.780630	0.191082	0.189857
0.162562	0.124862	1.213053
1.153962	0.643598	0.001425
0.781870	0.187641	0.189252
0.162092	0.126260	1.183891
1.148109	0.638018	0.019455
0.784427	0.182336	0.188022
0.161078	0.125364	1.134620
1.135939	0.625461	0.010388
0.788664	0.179790	0.186021
0.159410	0.124424	1.107164
1.115407	0.604552	-0.007738
0.794009	0.180423	0.183541
0.156814	0.125063	1.111644
1.088690	0.569704	0.003415
0.799741	0.177791	0.180907
0.152844	0.124816	1.082761
1.058763	0.513412	-0.000679
0.805086	0.174931	0.178449
0.145477	0.124793	1.051200
1.029395	0.397887	-0.001278
0.809323	0.174355	0.176484
0.136383	0.125067	1.043639
1.004909	0.235952	0.003541
0.811880	0.173879	0.175284
0.130700	0.124804	1.036605
0.989526	0.125347	-0.001140
0.813120	0.173401	0.174697
0.128520	0.124670	1.030219
0.981876	0.080637	-0.002779
0.815677	0.172056	0.173475
0.126305	0.124808	1.013713
0.965712	0.029511	-0.001077
0.819914	0.169872	0.171409
0.125316	0.124931	0.988260
0.937608	0.007214	0.001202
0.825259	0.169674	0.168711
0.124993	0.124824	0.985226
0.899445	0.000498	-0.000609
0.830991	0.165636	0.165672
0.124984	0.124878	0.928763
0.854468	-0.000124	0.000262
0.836336	0.156811	0.162674
0.124999	0.124864	0.794560
0.807991	0.000417	0.000066
0.840573	0.151328	0.160170
0.124959	0.124831	0.699084
0.767553	-0.000517	-0.000548
0.843130	0.150045	0.158601
0.124993	0.124885	0.674017
0.741437	0.000140	0.000458
0.844370	0.149791	0.157823
0.124999	0.124903	0.668971
0.728262	0.000300	0.000659
0.846927	0.149761	0.156187
0.124984	0.124859	0.668225
0.700048	0.000053	-0.000030
0.851164	0.149935	0.153375
0.124981	0.124852	0.669913
0.649960	-0.000052	-0.000160
0.856509	0.148183	0.149667
0.124984	0.124869	0.634312
0.580656	0.000021	0.000124
0.862241	0.146423	0.145563
0.124983	0.124856	0.599122
0.499336	-0.000009	-0.000085
0.867586	0.145990	0.141746
0.124983	0.124864	0.588282
0.418997	0.000002	0.000044
0.871823	0.145007	0.138847
0.124983	0.124864	0.566275
0.354710	0.000007	0.000043
0.874380	0.143971	0.137198
0.124982	0.124855	0.544556
0.316825	-0.000015	-0.000124
0.875620	0.143552	0.136434
0.124983	0.124856	0.535669
0.298919	-0.000005	-0.000083
0.878177	0.142970	0.134946
0.124983	0.124864	0.523046
0.263396	0.000003	0.000039
0.882414	0.142847	0.132766
0.124983	0.124862	0.518881
0.209754	0.000000	0.000012
0.887759	0.141708	0.130559
0.124983	0.124860	0.492934
0.153362	-0.000000	-0.000018
0.893491	0.137922	0.128823
0.124983	0.124862	0.400344
0.107433	0.000000	0.000016
0.898836	0.134118	0.127685
0.124983	0.124861	0.298308
0.076499	-0.000000	-0.000013
0.903073	0.132561	0.127032
0.124983	0.124861	0.254849
0.058416	0.000000	0.000000
0.905630	0.132364	0.126719
0.124983	0.124863	0.249712
0.049672	0.000000	0.000024
0.906870	0.132412	0.126586
0.124983	0.124862	0.250958
0.045921	-0.000000	0.000010
0.909427	0.132635	0.126343
0.124983	0.124861	0.256463
0.039079	-0.000000	-0.000013
0.913664	0.132425	0.126022
0.124983	0.124862	0.249262
0.029943	0.000000	0.000002
0.919009	0.131336	0.125725
0.124983	0.124861	0.218142
0.021444	-0.000000	0.000001
0.924741	0.130967	0.125504
0.124983	0.124861	0.206572
0.015040	0.000000	-0.000002
0.930086	0.130781	0.125360
0.124983	0.124862	0.200109
0.010825	0.000000	0.000003
0.934323	0.130170	0.125275
0.124983	0.124861	0.182080
0.008346	0.000000	-0.000003
0.936880	0.129840	0.125234
0.124983	0.124861	0.172066
0.007137	0.000000	-0.000003
0.938120	0.129745	0.125217
0.124983	0.124861	0.168937
0.006616	0.000000	0.000001
0.940677	0.129667	0.125184
0.124983	0.124862	0.165873
0.005661	0.000000	0.000002
0.944914	0.129499	0.125141
0.124983	0.124861	0.160210
0.004370	0.000000	-0.000001
0.950259	0.129116	0.125100
0.124983	0.124861	0.148939
0.003148	0.000000	-0.000000
0.955991	0.128481	0.125069
0.124983	0.124861	0.127537
0.002211	0.000000	-0.000001
0.961336	0.127324	0.125049
0.124983	0.124861	0.086845
0.001585	0.000000	-0.000001
0.965573	0.126374	0.125037
0.124983	0.124861	0.053294
0.001215	0.000000	-0.000000
0.968130	0.126105	0.125031
0.124983	0.124861	0.043511
0.001035	0.000000	-0.000001
0.969370	0.126077	0.125028
0.124983	0.124861	0.042332
0.000958	0.000000	-0.000001
0.971927	0.126161	0.125024
0.124983	0.124861	0.044872
0.000817	0.000000	-0.000001
0.976164	0.126337	0.125017
0.124983	0.124861	0.050778
0.000624	0.000000	-0.000001
0.981509	0.126157	0.125012
0.124983	0.124861	0.043864
0.000440	0.000000	-0.000002
0.987241	0.125989	0.125007
0.124983	0.124862	0.036701
0.000301	0.000000	-0.000002
0.992586	0.126036	0.125004
0.124983	0.124862	0.037205
0.000211	0.000000	-0.000002
0.996823	0.125994	0.125002
0.124983	0.124862	0.034659
0.000159	0.000000	-0.000003
0.999380	0.125919	0.125002
0.124983	0.124862	0.031140
0.000134	0.000000	-0.000003
