TITLE = "DG_bgk1D_ERK results"
VARIABLES = "X" "R1" "R2" "R3" "R4" "U1" "U2" "U3" "U4"
ZONE T = "Final Time 0.12"
I = 256, J = 1, K = 1, F = POINT

0.000620	0.999709	0.998826	0.993321	0.983719	0.749149	0.743282	0.711382	0.654076	
0.003177	0.999704	0.998826	0.993321	0.983719	0.749170	0.743282	0.711382	0.654076	
0.007414	0.999692	0.998826	0.993321	0.983718	0.749229	0.743283	0.711382	0.654075	
0.012759	0.999694	0.998826	0.993321	0.983718	0.749218	0.743283	0.711381	0.654074	
0.018491	0.999705	0.998826	0.993321	0.983717	0.749163	0.743284	0.711381	0.654073	
0.023836	0.999654	0.998826	0.993321	0.983717	0.749405	0.743285	0.711381	0.654072	
0.028073	0.999562	0.998826	0.993320	0.983716	0.749828	0.743286	0.711381	0.654071	
0.030630	0.999515	0.998826	0.993320	0.983716	0.750045	0.743286	0.711381	0.654071	
0.031870	0.999498	0.998826	0.993320	0.983716	0.750122	0.743287	0.711381	0.654071	
0.034427	0.999480	0.998826	0.993320	0.983716	0.750206	0.743287	0.711381	0.654070	
0.038664	0.999472	0.998825	0.993320	0.983716	0.750235	0.743288	0.711381	0.654070	
0.044009	0.999452	0.998825	0.993320	0.983715	0.750311	0.743290	0.711380	0.654069	
0.049741	0.999424	0.998825	0.993320	0.983715	0.750431	0.743292	0.711380	0.654068	
0.055086	0.999411	0.998824	0.993320	0.983715	0.750482	0.743295	0.711380	0.654068	
0.059323	0.999386	0.998823	0.993320	0.983715	0.750587	0.743298	0.711380	0.654068	
0.061880	0.999364	0.998823	0.993320	0.983715	0.750680	0.743299	0.711380	0.654067	
0.063120	0.999355	0.998823	0.993320	0.983715	0.750717	0.743300	0.711380	0.654067	
0.065677	0.999340	0.998822	0.993320	0.983714	0.750775	0.743303	0.711380	0.654067	
0.069914	0.999345	0.998821	0.993320	0.983714	0.750750	0.743307	0.711380	0.654067	
0.075259	0.999316	0.998819	0.993320	0.983714	0.750874	0.743313	0.711380	0.654067	
0.080991	0.999237	0.998817	0.993320	0.983714	0.751190	0.743322	0.711380	0.654066	
0.086336	0.999262	0.998814	0.993320	0.983714	0.751084	0.743332	0.711380	0.654066	
0.090573	0.999288	0.998811	0.993320	0.983714	0.750986	0.743343	0.711380	0.654066	
0.093130	0.999204	0.998809	0.993320	0.983714	0.751325	0.743350	0.711379	0.654066	
0.094370	0.999136	0.998807	0.993320	0.983714	0.751601	0.743354	0.711379	0.654066	
0.096927	0.998946	0.998805	0.993320	0.983714	0.752372	0.743363	0.711379	0.654066	
0.101164	0.998629	0.998800	0.993320	0.983714	0.753655	0.743379	0.711379	0.654066	
0.106509	0.998413	0.998792	0.993320	0.983714	0.754518	0.743406	0.711379	0.654066	
0.112241	0.998319	0.998781	0.993320	0.983714	0.754852	0.743442	0.711379	0.654065	
0.117586	0.998218	0.998768	0.993320	0.983713	0.755219	0.743485	0.711379	0.654065	
0.121823	0.998157	0.998756	0.993320	0.983713	0.755448	0.743528	0.711379	0.654065	
0.124380	0.998108	0.998747	0.993320	0.983713	0.755633	0.743558	0.711379	0.654065	
0.125620	0.998077	0.998742	0.993320	0.983713	0.755750	0.743574	0.711379	0.654065	
0.128177	0.997985	0.998731	0.993320	0.983713	0.756088	0.743609	0.711379	0.654065	
0.132414	0.997855	0.998710	0.993320	0.983713	0.756548	0.743677	0.711379	0.654065	
0.137759	0.997822	0.998678	0.993320	0.983713	0.756672	0.743782	0.711379	0.654065	
0.143491	0.997656	0.998633	0.993320	0.983713	0.757290	0.743925	0.711379	0.654065	
0.148836	0.997373	0.998581	0.993320	0.983713	0.758280	0.744094	0.711379	0.654065	
0.153073	0.997429	0.998530	0.993320	0.983713	0.758090	0.744256	0.711379	0.654065	
0.155630	0.997511	0.998494	0.993320	0.983713	0.757822	0.744369	0.711379	0.654065	
0.156870	0.997497	0.998475	0.993320	0.983713	0.757876	0.744428	0.711379	0.654065	
0.159427	0.997300	0.998434	0.993320	0.983713	0.758572	0.744559	0.711379	0.654065	
0.163664	0.996472	0.998354	0.993320	0.983713	0.761492	0.744808	0.711379	0.654065	
0.169009	0.995306	0.998232	0.993320	0.983713	0.765621	0.745188	0.711379	0.654065	
0.174741	0.994643	0.998069	0.993320	0.983713	0.767899	0.745691	0.711379	0.654065	
0.180086	0.994337	0.997881	0.993320	0.983713	0.768856	0.746267	0.711379	0.654065	
0.184323	0.994109	0.997703	0.993320	0.983713	0.769604	0.746809	0.711379	0.654065	
0.186880	0.993983	0.997581	0.993320	0.983713	0.770024	0.747177	0.711379	0.654065	
0.188120	0.993896	0.997518	0.993320	0.983713	0.770317	0.747368	0.711379	0.654065	
0.190677	0.993675	0.997378	0.993320	0.983713	0.771059	0.747788	0.711379	0.654065	
0.194914	0.993197	0.997118	0.993320	0.983713	0.772578	0.748568	0.711379	0.654065	
0.200259	0.992904	0.996730	0.993320	0.983713	0.773517	0.749719	0.711379	0.654065	
0.205991	0.992595	0.996232	0.993320	0.983713	0.774576	0.751187	0.711379	0.654064	
0.211336	0.991750	0.995678	0.993319	0.983713	0.777215	0.752805	0.711379	0.654065	
0.215573	0.991458	0.995170	0.993319	0.983713	0.778120	0.754277	0.711380	0.654066	
0.218130	0.991666	0.994832	0.993319	0.983714	0.777561	0.755253	0.711380	0.654064	
0.219370	0.991720	0.994659	0.993319	0.983714	0.777433	0.755752	0.711381	0.654063	
0.221927	0.991558	0.994282	0.993318	0.983714	0.777970	0.756833	0.711382	0.654063	
0.226164	0.989925	0.993595	0.993317	0.983712	0.782960	0.758791	0.711386	0.654067	
0.231509	0.986839	0.992611	0.993312	0.983714	0.792447	0.761578	0.711398	0.654064	
0.237241	0.984692	0.991396	0.993298	0.983714	0.798983	0.764988	0.711434	0.654064	
0.242586	0.983828	0.990103	0.993267	0.983711	0.801387	0.768589	0.711516	0.654069	
0.246823	0.983279	0.988960	0.993216	0.983716	0.802985	0.771748	0.711648	0.654059	
0.249380	0.982987	0.988217	0.993166	0.983717	0.803872	0.773791	0.711773	0.654057	
0.250620	0.982766	0.987842	0.993136	0.983716	0.804524	0.774820	0.711851	0.654060	
0.253177	0.982201	0.987038	0.993055	0.983710	0.806166	0.777019	0.712056	0.654073	
0.257414	0.981072	0.985611	0.992853	0.983712	0.809339	0.780902	0.712566	0.654068	
0.262759	0.980314	0.983637	0.992421	0.983718	0.811525	0.786237	0.713647	0.654054	
0.268491	0.979476	0.981296	0.991635	0.983708	0.814020	0.792513	0.715596	0.654077	
0.273836	0.977628	0.978899	0.990485	0.983714	0.819125	0.798893	0.718421	0.654063	
0.278073	0.976946	0.976848	0.989216	0.983729	0.821002	0.804316	0.721517	0.654033	
0.280630	0.977269	0.975546	0.988276	0.983715	0.820300	0.807745	0.723800	0.654060	
0.281870	0.977343	0.974896	0.987769	0.983708	0.820218	0.809453	0.725028	0.654075	
0.284427	0.976881	0.973519	0.986617	0.983697	0.821625	0.813059	0.727811	0.654100	
0.288664	0.973030	0.971128	0.984377	0.983724	0.831806	0.819297	0.733200	0.654040	
0.294009	0.966439	0.967915	0.980947	0.983728	0.849355	0.827631	0.741405	0.654033	
0.299741	0.962501	0.964227	0.976528	0.983688	0.859854	0.837133	0.751920	0.654123	
0.305086	0.960921	0.960565	0.971749	0.983545	0.863619	0.846509	0.763241	0.654429	
0.309323	0.959833	0.957511	0.967543	0.982853	0.866509	0.854287	0.773174	0.655941	
0.311880	0.959319	0.955604	0.964838	0.981848	0.867988	0.859125	0.779548	0.658093	
0.313120	0.958822	0.954662	0.963483	0.981175	0.869248	0.861512	0.782739	0.659534	
0.315677	0.957493	0.952685	0.960607	0.979384	0.872504	0.866509	0.789504	0.663380	
0.319914	0.955494	0.949307	0.955609	0.975280	0.877434	0.875016	0.801244	0.672132	
0.325259	0.954395	0.944867	0.948929	0.968573	0.880424	0.886144	0.816909	0.686400	
0.330991	0.952193	0.939894	0.941361	0.960186	0.885970	0.898545	0.834628	0.704207	
0.336336	0.949028	0.935067	0.933982	0.951692	0.893668	0.910520	0.851888	0.722232	
0.340573	0.948803	0.931117	0.927943	0.944637	0.894460	0.920277	0.866004	0.737187	
0.343130	0.949002	0.928683	0.924226	0.940277	0.894279	0.926273	0.874688	0.746427	
0.344370	0.948684	0.927487	0.922404	0.938140	0.895215	0.929212	0.878945	0.750966	
0.346927	0.946337	0.924998	0.918616	0.933688	0.900902	0.935325	0.887794	0.760412	
0.351164	0.937260	0.920793	0.912243	0.926181	0.921699	0.945617	0.902677	0.776322	
0.356509	0.926460	0.915358	0.904055	0.916535	0.946783	0.958871	0.921799	0.796787	
0.362241	0.922414	0.909381	0.895119	0.906000	0.956172	0.973381	0.942668	0.819145	
0.367586	0.920047	0.903682	0.886669	0.896029	0.961079	0.987159	0.962407	0.840317	
0.371823	0.918000	0.899087	0.879906	0.888045	0.965957	0.998227	0.978209	0.857288	
0.374380	0.917141	0.896283	0.875802	0.883193	0.968087	1.004962	0.987801	0.867603	
0.375620	0.916331	0.894915	0.873804	0.880829	0.969901	1.008245	0.992471	0.872627	
0.378177	0.914059	0.892080	0.869678	0.875948	0.974711	1.015036	1.002117	0.883014	
0.382414	0.911374	0.887343	0.862817	0.867821	0.980481	1.026358	1.018163	0.900324	
0.387759	0.910010	0.881302	0.854130	0.857501	0.984055	1.040743	1.038491	0.922318	
0.393491	0.905364	0.874761	0.844796	0.846376	0.994013	1.056256	1.060345	0.946064	
0.398836	0.901853	0.868619	0.836099	0.835962	1.001529	1.070760	1.080725	0.968326	
0.403073	0.903506	0.863733	0.829225	0.827688	0.999227	1.082256	1.096842	0.986034	
0.405630	0.900988	0.860780	0.825090	0.822689	1.004474	1.089186	1.106541	0.996742	
0.406870	0.898060	0.859346	0.823088	0.820262	1.010156	1.092546	1.111238	1.001943	
0.409427	0.890110	0.856390	0.818976	0.815265	1.026219	1.099459	1.120891	1.012666	
0.413664	0.874979	0.851497	0.812204	0.806984	1.057002	1.110871	1.136793	1.030447	
0.419009	0.863947	0.845345	0.803760	0.796553	1.079251	1.125158	1.156636	1.052876	
0.424741	0.861955	0.838793	0.794871	0.785412	1.083050	1.140295	1.177542	1.076883	
0.430086	0.857682	0.832741	0.786788	0.775085	1.091253	1.154199	1.196567	1.099174	
0.434323	0.853872	0.827995	0.780560	0.766967	1.098570	1.165044	1.211234	1.116729	
0.436880	0.853907	0.825157	0.776893	0.762107	1.099169	1.171503	1.219873	1.127254	
0.438120	0.853285	0.823787	0.775141	0.759760	1.100485	1.174613	1.224001	1.132341	
0.440677	0.849457	0.820981	0.771594	0.754953	1.107173	1.180969	1.232361	1.142766	
0.444914	0.846063	0.816384	0.765922	0.747082	1.113604	1.191331	1.245734	1.159850	
0.450259	0.844205	0.810690	0.759188	0.737392	1.117921	1.204076	1.261615	1.180932	
0.455991	0.836869	0.804726	0.752581	0.727479	1.131149	1.217300	1.277202	1.202548	
0.461336	0.835797	0.799311	0.747077	0.719269	1.133957	1.229178	1.290193	1.220480	
0.465573	0.834791	0.795126	0.743204	0.714225	1.136573	1.238263	1.299339	1.231525	
0.468130	0.822582	0.792644	0.741085	0.712043	1.157557	1.243604	1.304350	1.236323	
0.469370	0.815666	0.791452	0.740115	0.711229	1.169554	1.246156	1.306643	1.238123	
0.471927	0.801251	0.789023	0.738239	0.709995	1.194959	1.251328	1.311084	1.240853	
0.476164	0.787400	0.785080	0.735480	0.709643	1.219664	1.259638	1.317625	1.241702	
0.481509	0.783130	0.780247	0.732581	0.710943	1.226500	1.269658	1.324524	1.238988	
0.487241	0.778818	0.775231	0.730103	0.711030	1.233348	1.279829	1.330462	1.238991	
0.492586	0.773220	0.770698	0.728271	0.709067	1.242674	1.288786	1.334894	1.243383	
0.496823	0.769814	0.767195	0.727076	0.707948	1.248039	1.295529	1.337813	1.245887	
0.499380	0.767161	0.765114	0.726444	0.707762	1.252437	1.299452	1.339371	1.246317	
0.500620	0.766305	0.764112	0.726157	0.707757	1.253825	1.301317	1.340080	1.246331	
0.503177	0.763564	0.762063	0.725605	0.707921	1.258141	1.305081	1.341453	1.245992	
0.507414	0.760222	0.758705	0.724785	0.708284	1.263704	1.311094	1.343508	1.245213	
0.512759	0.754304	0.754511	0.723886	0.708570	1.272979	1.318306	1.345784	1.244596	
0.518491	0.749949	0.750030	0.723050	0.708402	1.280169	1.325617	1.347923	1.244940	
0.523836	0.745568	0.745821	0.722360	0.707992	1.287378	1.332089	1.349702	1.245764	
0.528073	0.728872	0.742428	0.721861	0.707704	1.311822	1.337020	1.350996	1.246312	
0.530630	0.710989	0.740343	0.721576	0.707562	1.338548	1.339924	1.351736	1.246561	
0.531870	0.702298	0.739319	0.721442	0.707502	1.351845	1.341315	1.352085	1.246657	
0.534427	0.686701	0.737181	0.721173	0.707416	1.376110	1.344148	1.352785	1.246762	
0.538664	0.684606	0.733541	0.720746	0.707350	1.377784	1.348751	1.353893	1.246738	
0.544009	0.682330	0.728722	0.720238	0.707199	1.379505	1.354452	1.355210	1.246827	
0.549741	0.672017	0.723198	0.719723	0.706782	1.394359	1.360497	1.356535	1.247406	
0.555086	0.668445	0.717636	0.719264	0.706270	1.397767	1.366127	1.357703	1.248153	
0.559323	0.663254	0.712892	0.718911	0.705858	1.404656	1.370626	1.358590	1.248717	
0.561880	0.657890	0.709866	0.718701	0.705622	1.412798	1.373370	1.359112	1.249001	
0.563120	0.656792	0.708350	0.718600	0.705511	1.414051	1.374712	1.359361	1.249119	
0.565677	0.656193	0.705123	0.718394	0.705303	1.413701	1.377499	1.359868	1.249298	
0.569914	0.650060	0.699446	0.718054	0.704947	1.421656	1.382203	1.360687	1.249573	
0.575259	0.643119	0.691642	0.717628	0.704388	1.430719	1.388319	1.361687	1.250132	
0.580991	0.640080	0.682393	0.717169	0.703610	1.434978	1.395148	1.362724	1.250941	
0.586336	0.619799	0.672864	0.716732	0.702800	1.459147	1.401811	1.363664	1.251729	
0.590573	0.590228	0.664644	0.716372	0.702151	1.494500	1.407311	1.364396	1.252342	
0.593130	0.574237	0.659388	0.716145	0.701753	1.514249	1.410727	1.364833	1.252689	
0.594370	0.568533	0.656755	0.716031	0.701561	1.521750	1.412411	1.365045	1.252807	
0.596927	0.563070	0.651159	0.715787	0.701143	1.527927	1.415935	1.365479	1.253104	
0.601164	0.564962	0.641375	0.715338	0.700264	1.522460	1.421935	1.366198	1.253689	
0.606509	0.556949	0.628105	0.714628	0.699219	1.530863	1.429793	1.367120	1.254485	
0.612241	0.546177	0.612741	0.713474	0.698002	1.542356	1.438546	1.368179	1.255505	
0.617586	0.541897	0.597400	0.711585	0.696267	1.544861	1.446968	1.369329	1.256416	
0.621823	0.535511	0.584591	0.708978	0.694939	1.551638	1.453784	1.370453	1.257189	
0.624380	0.530191	0.576603	0.706627	0.694404	1.557625	1.457940	1.371272	1.257710	
0.625620	0.528091	0.572660	0.705201	0.694383	1.559581	1.459965	1.371719	1.257584	
0.628177	0.525481	0.564412	0.701533	0.693550	1.561322	1.464148	1.372757	1.258159	
0.632414	0.519585	0.550401	0.692655	0.691481	1.565851	1.471084	1.374902	1.259031	
0.637759	0.514223	0.532218	0.674707	0.687719	1.572740	1.479768	1.378504	1.259915	
0.643491	0.502687	0.512261	0.644889	0.687479	1.582213	1.488862	1.383509	1.261283	
0.648836	0.470464	0.493407	0.607000	0.659415	1.606785	1.496988	1.388871	1.263682	
0.653073	0.443007	0.478425	0.571683	0.598952	1.629114	1.503078	1.393073	1.266065	
0.655630	0.435143	0.469409	0.549123	0.552790	1.634142	1.506567	1.395334	1.266876	
0.656870	0.433729	0.465048	0.538044	0.531604	1.634297	1.508203	1.396308	1.266897	
0.659427	0.433742	0.456103	0.515302	0.493904	1.632641	1.511445	1.397976	1.266252	
0.663664	0.432421	0.441442	0.478982	0.455952	1.631972	1.516399	1.399447	1.262166	
0.669009	0.421581	0.423331	0.437798	0.430260	1.638413	1.521794	1.398389	1.254994	
0.674741	0.413503	0.404539	0.400948	0.406024	1.641833	1.526355	1.393109	1.243317	
0.680086	0.408972	0.387725	0.373197	0.382595	1.642635	1.529315	1.384266	1.227058	
0.684323	0.401827	0.374946	0.354958	0.363377	1.646318	1.530688	1.374741	1.209429	
0.686880	0.397052	0.367486	0.345236	0.350807	1.648592	1.531075	1.367993	1.196229	
0.688120	0.395136	0.363935	0.340808	0.344730	1.649107	1.531139	1.364461	1.188881	
0.690677	0.392749	0.356769	0.332206	0.332019	1.648847	1.531010	1.356670	1.172205	
0.694914	0.388347	0.345341	0.319222	0.310561	1.649799	1.530008	1.342301	1.138721	
0.700259	0.383151	0.331735	0.304530	0.283567	1.654082	1.527306	1.321688	1.085222	
0.705991	0.365853	0.318153	0.290269	0.256436	1.652732	1.522598	1.296643	1.015015	
0.711336	0.336031	0.306420	0.278023	0.234249	1.645892	1.516525	1.270697	0.940690	
0.715573	0.318632	0.297747	0.268933	0.219216	1.640248	1.510583	1.248486	0.879627	
0.718130	0.316131	0.292774	0.263695	0.211236	1.637492	1.506530	1.234436	0.843154	
0.719370	0.316221	0.290429	0.261217	0.207695	1.636444	1.504439	1.227454	0.825192	
0.721927	0.317403	0.285737	0.256246	0.200970	1.635232	1.499882	1.212756	0.789288	
0.726164	0.314292	0.278362	0.248400	0.191357	1.633133	1.491615	1.187565	0.733352	
0.731509	0.305371	0.269737	0.239187	0.181567	1.626752	1.479981	1.154561	0.668432	
0.737241	0.300924	0.261280	0.230141	0.173221	1.621077	1.466142	1.118092	0.606670	
0.742586	0.297152	0.254080	0.222456	0.167072	1.616851	1.452103	1.083518	0.555947	
0.746823	0.291499	0.248808	0.216855	0.163144	1.611103	1.440286	1.055991	0.519446	
0.749380	0.288466	0.245801	0.213674	0.160968	1.606924	1.432892	1.039406	0.500535	
0.750620	0.287245	0.244386	0.212183	0.160024	1.604968	1.429236	1.031377	0.491198	
0.753177	0.285614	0.241562	0.209215	0.158243	1.602054	1.421578	1.014899	0.471810	
0.757414	0.282853	0.237137	0.204594	0.155423	1.598457	1.408542	0.987849	0.443788	
0.762759	0.278853	0.231974	0.199258	0.152269	1.594871	1.391560	0.954337	0.411867	
0.768491	0.265068	0.226910	0.194095	0.149603	1.563565	1.372798	0.919367	0.380006	
0.773836	0.244186	0.222585	0.189750	0.147415	1.504934	1.354895	0.887810	0.354792	
0.778073	0.233254	0.219402	0.186597	0.145957	1.469307	1.340490	0.863587	0.334834	
0.780630	0.232108	0.217579	0.184808	0.145050	1.463948	1.331721	0.849320	0.324628	
0.781870	0.232395	0.216718	0.183969	0.144754	1.463974	1.327447	0.842494	0.320294	
0.784427	0.233638	0.214993	0.182298	0.143747	1.466259	1.318607	0.828627	0.306934	
0.788664	0.231821	0.212270	0.179691	0.142582	1.459072	1.303866	0.806247	0.295855	
0.794009	0.226003	0.209052	0.176663	0.140763	1.436063	1.285129	0.779078	0.268110	
0.799741	0.223574	0.205843	0.173707	0.140206	1.423114	1.264893	0.751238	0.261469	
0.805086	0.221570	0.203047	0.171191	0.137132	1.413274	1.245899	0.726443	0.213426	
0.809323	0.218138	0.200949	0.169346	0.128931	1.397437	1.230758	0.707556	0.070479	
0.811880	0.216340	0.199728	0.168290	0.123296	1.387707	1.221580	0.696456	-0.026360	
0.813120	0.215612	0.199147	0.167792	0.122198	1.383462	1.217113	0.691155	-0.041215	
0.815677	0.214596	0.197972	0.166792	0.124974	1.377287	1.207884	0.680448	0.001640	
0.819914	0.212862	0.196084	0.165217	0.125762	1.367448	1.192502	0.663056	0.016184	
0.825259	0.210919	0.193797	0.163352	0.124267	1.358647	1.172907	0.641868	-0.009654	
0.830991	0.204666	0.191442	0.161472	0.125223	1.317388	1.151595	0.619796	0.006374	
0.836336	0.192328	0.189319	0.159797	0.124784	1.223067	1.131368	0.599137	-0.000711	
0.840573	0.183481	0.187676	0.158447	0.124461	1.147042	1.115039	0.582395	-0.006808	
0.843130	0.181287	0.186697	0.157584	0.125240	1.126049	1.105037	0.571496	0.007292	
0.844370	0.181049	0.186225	0.157137	0.125397	1.123023	1.100137	0.565162	0.008842	
0.846927	0.181665	0.185258	0.156251	0.124821	1.126562	1.089941	0.553221	-0.000064	
0.851164	0.182063	0.183667	0.154182	0.124690	1.128045	1.072707	0.524986	-0.002585	
0.856509	0.178895	0.181667	0.150552	0.124953	1.096568	1.050259	0.472151	0.001909	
0.862241	0.176605	0.179517	0.142451	0.124772	1.070491	1.025136	0.341809	-0.001123	
0.867586	0.175889	0.177490	0.131852	0.124865	1.060133	1.000518	0.145323	0.000383	
0.871823	0.174275	0.175857	0.126246	0.124891	1.041988	0.980028	0.029784	0.000933	
0.874380	0.173049	0.174857	0.125557	0.124758	1.027724	0.967181	0.012336	-0.001493	
0.875620	0.172577	0.174366	0.125563	0.124763	1.021815	0.960802	0.010852	-0.001243	
0.878177	0.171775	0.173344	0.125203	0.124854	1.011257	0.947344	0.005195	0.000223	
0.882414	0.170690	0.171611	0.124960	0.124858	0.996116	0.924013	-0.000211	0.000314	
0.887759	0.169185	0.169343	0.124993	0.124824	0.976565	0.892476	0.000180	-0.000263	
0.893491	0.167829	0.166785	0.124981	0.124850	0.958786	0.855571	0.000087	0.000178	
0.898836	0.163915	0.164261	0.124974	0.124834	0.901037	0.817721	-0.000147	-0.000085	
0.903073	0.158093	0.162150	0.124989	0.124834	0.809740	0.784963	0.000206	-0.000105	
0.905630	0.154555	0.160824	0.124975	0.124852	0.750728	0.763868	-0.000076	0.000239	
0.906870	0.153242	0.160166	0.124974	0.124852	0.727779	0.753241	-0.000115	0.000195	
0.909427	0.151481	0.158778	0.124979	0.124836	0.695329	0.730506	-0.000020	-0.000069	
0.913664	0.151357	0.156383	0.124981	0.124838	0.688609	0.690175	0.000022	-0.000036	
0.919009	0.151312	0.153189	0.124979	0.124842	0.682906	0.634167	-0.000009	0.000040	
0.924741	0.149373	0.149567	0.124980	0.124838	0.641985	0.567418	0.000004	-0.000035	
0.930086	0.148226	0.146056	0.124980	0.124841	0.613105	0.499216	-0.000001	0.000024	
0.934323	0.147936	0.143243	0.124980	0.124840	0.600987	0.441907	-0.000002	0.000002	
0.936880	0.147472	0.141561	0.124980	0.124837	0.587990	0.406475	0.000007	-0.000052	
0.938120	0.147194	0.140756	0.124980	0.124838	0.580422	0.389186	0.000001	-0.000024	
0.940677	0.146528	0.139133	0.124980	0.124841	0.562429	0.353656	-0.000001	0.000021	
0.944914	0.145681	0.136593	0.124980	0.124840	0.536511	0.296192	0.000000	-0.000003	
0.950259	0.145013	0.133761	0.124980	0.124840	0.509081	0.229333	0.000000	-0.000006	
0.955991	0.144016	0.131296	0.124980	0.124840	0.470318	0.168526	0.000000	0.000002	
0.961336	0.143425	0.129541	0.124980	0.124839	0.439042	0.123698	0.000000	-0.000009	
0.965573	0.143103	0.128482	0.124980	0.124840	0.414001	0.095984	-0.000000	-0.000001	
0.968130	0.142480	0.127963	0.124980	0.124840	0.386687	0.082213	0.000000	0.000003	
0.969370	0.141961	0.127739	0.124980	0.124840	0.367626	0.076245	0.000000	-0.000003	
0.971927	0.140561	0.127330	0.124980	0.124840	0.318727	0.065276	0.000000	-0.000009	
0.976164	0.137903	0.126783	0.124980	0.124840	0.223359	0.050515	0.000000	-0.000004	
0.981509	0.136426	0.126274	0.124980	0.124840	0.143408	0.036713	0.000000	-0.000006	
0.987241	0.137049	0.125887	0.124980	0.124840	0.111296	0.026299	0.000000	-0.000008	
0.992586	0.137526	0.125628	0.124980	0.124840	0.071312	0.019514	0.000000	-0.000008	
0.996823	0.137507	0.125470	0.124980	0.124840	0.022068	0.015622	0.000000	-0.000011	
0.999380	0.137628	0.125391	0.124980	0.124840	-0.006593	0.013783	0.000000	-0.000012	
