TITLE = "Mesh from Matlab"
VARIABLES = "X" "Y"
ZONE T = "Inlet zone"
I = 26, J = 41, K = 1, F = POINT

0.000000	0.500000
0.400000	0.500000
0.800000	0.500000
1.200000	0.500000
1.600000	0.500000
2.000000	0.500000
2.400000	0.500000
2.800000	0.500000
3.200000	0.500000
3.600000	0.500000
4.000000	0.500000
4.400000	0.500000
4.800000	0.500000
5.200000	0.500000
5.600000	0.500000
6.000000	0.500000
6.400000	0.500000
6.800000	0.500000
7.200000	0.500000
7.600000	0.500000
8.000000	0.500000
8.400000	0.500000
8.800000	0.500000
9.200000	0.500000
9.600000	0.500000
10.000000	0.500000
0.000000	0.487500
0.400000	0.487500
0.800000	0.487500
1.200000	0.487500
1.600000	0.487500
2.000000	0.487500
2.400000	0.487500
2.800000	0.487500
3.200000	0.487500
3.600000	0.487500
4.000000	0.487500
4.400000	0.487500
4.800000	0.487500
5.200000	0.487500
5.600000	0.487500
6.000000	0.487500
6.400000	0.487500
6.800000	0.487500
7.200000	0.487500
7.600000	0.487500
8.000000	0.487500
8.400000	0.487500
8.800000	0.487500
9.200000	0.487500
9.600000	0.487500
10.000000	0.487500
0.000000	0.475000
0.400000	0.475000
0.800000	0.475000
1.200000	0.475000
1.600000	0.475000
2.000000	0.475000
2.400000	0.475000
2.800000	0.475000
3.200000	0.475000
3.600000	0.475000
4.000000	0.475000
4.400000	0.475000
4.800000	0.475000
5.200000	0.475000
5.600000	0.475000
6.000000	0.475000
6.400000	0.475000
6.800000	0.475000
7.200000	0.475000
7.600000	0.475000
8.000000	0.475000
8.400000	0.475000
8.800000	0.475000
9.200000	0.475000
9.600000	0.475000
10.000000	0.475000
0.000000	0.462500
0.400000	0.462500
0.800000	0.462500
1.200000	0.462500
1.600000	0.462500
2.000000	0.462500
2.400000	0.462500
2.800000	0.462500
3.200000	0.462500
3.600000	0.462500
4.000000	0.462500
4.400000	0.462500
4.800000	0.462500
5.200000	0.462500
5.600000	0.462500
6.000000	0.462500
6.400000	0.462500
6.800000	0.462500
7.200000	0.462500
7.600000	0.462500
8.000000	0.462500
8.400000	0.462500
8.800000	0.462500
9.200000	0.462500
9.600000	0.462500
10.000000	0.462500
0.000000	0.450000
0.400000	0.450000
0.800000	0.450000
1.200000	0.450000
1.600000	0.450000
2.000000	0.450000
2.400000	0.450000
2.800000	0.450000
3.200000	0.450000
3.600000	0.450000
4.000000	0.450000
4.400000	0.450000
4.800000	0.450000
5.200000	0.450000
5.600000	0.450000
6.000000	0.450000
6.400000	0.450000
6.800000	0.450000
7.200000	0.450000
7.600000	0.450000
8.000000	0.450000
8.400000	0.450000
8.800000	0.450000
9.200000	0.450000
9.600000	0.450000
10.000000	0.450000
0.000000	0.437500
0.400000	0.437500
0.800000	0.437500
1.200000	0.437500
1.600000	0.437500
2.000000	0.437500
2.400000	0.437500
2.800000	0.437500
3.200000	0.437500
3.600000	0.437500
4.000000	0.437500
4.400000	0.437500
4.800000	0.437500
5.200000	0.437500
5.600000	0.437500
6.000000	0.437500
6.400000	0.437500
6.800000	0.437500
7.200000	0.437500
7.600000	0.437500
8.000000	0.437500
8.400000	0.437500
8.800000	0.437500
9.200000	0.437500
9.600000	0.437500
10.000000	0.437500
0.000000	0.425000
0.400000	0.425000
0.800000	0.425000
1.200000	0.425000
1.600000	0.425000
2.000000	0.425000
2.400000	0.425000
2.800000	0.425000
3.200000	0.425000
3.600000	0.425000
4.000000	0.425000
4.400000	0.425000
4.800000	0.425000
5.200000	0.425000
5.600000	0.425000
6.000000	0.425000
6.400000	0.425000
6.800000	0.425000
7.200000	0.425000
7.600000	0.425000
8.000000	0.425000
8.400000	0.425000
8.800000	0.425000
9.200000	0.425000
9.600000	0.425000
10.000000	0.425000
0.000000	0.412500
0.400000	0.412500
0.800000	0.412500
1.200000	0.412500
1.600000	0.412500
2.000000	0.412500
2.400000	0.412500
2.800000	0.412500
3.200000	0.412500
3.600000	0.412500
4.000000	0.412500
4.400000	0.412500
4.800000	0.412500
5.200000	0.412500
5.600000	0.412500
6.000000	0.412500
6.400000	0.412500
6.800000	0.412500
7.200000	0.412500
7.600000	0.412500
8.000000	0.412500
8.400000	0.412500
8.800000	0.412500
9.200000	0.412500
9.600000	0.412500
10.000000	0.412500
0.000000	0.400000
0.400000	0.400000
0.800000	0.400000
1.200000	0.400000
1.600000	0.400000
2.000000	0.400000
2.400000	0.400000
2.800000	0.400000
3.200000	0.400000
3.600000	0.400000
4.000000	0.400000
4.400000	0.400000
4.800000	0.400000
5.200000	0.400000
5.600000	0.400000
6.000000	0.400000
6.400000	0.400000
6.800000	0.400000
7.200000	0.400000
7.600000	0.400000
8.000000	0.400000
8.400000	0.400000
8.800000	0.400000
9.200000	0.400000
9.600000	0.400000
10.000000	0.400000
0.000000	0.387500
0.400000	0.387500
0.800000	0.387500
1.200000	0.387500
1.600000	0.387500
2.000000	0.387500
2.400000	0.387500
2.800000	0.387500
3.200000	0.387500
3.600000	0.387500
4.000000	0.387500
4.400000	0.387500
4.800000	0.387500
5.200000	0.387500
5.600000	0.387500
6.000000	0.387500
6.400000	0.387500
6.800000	0.387500
7.200000	0.387500
7.600000	0.387500
8.000000	0.387500
8.400000	0.387500
8.800000	0.387500
9.200000	0.387500
9.600000	0.387500
10.000000	0.387500
0.000000	0.375000
0.400000	0.375000
0.800000	0.375000
1.200000	0.375000
1.600000	0.375000
2.000000	0.375000
2.400000	0.375000
2.800000	0.375000
3.200000	0.375000
3.600000	0.375000
4.000000	0.375000
4.400000	0.375000
4.800000	0.375000
5.200000	0.375000
5.600000	0.375000
6.000000	0.375000
6.400000	0.375000
6.800000	0.375000
7.200000	0.375000
7.600000	0.375000
8.000000	0.375000
8.400000	0.375000
8.800000	0.375000
9.200000	0.375000
9.600000	0.375000
10.000000	0.375000
0.000000	0.362500
0.400000	0.362500
0.800000	0.362500
1.200000	0.362500
1.600000	0.362500
2.000000	0.362500
2.400000	0.362500
2.800000	0.362500
3.200000	0.362500
3.600000	0.362500
4.000000	0.362500
4.400000	0.362500
4.800000	0.362500
5.200000	0.362500
5.600000	0.362500
6.000000	0.362500
6.400000	0.362500
6.800000	0.362500
7.200000	0.362500
7.600000	0.362500
8.000000	0.362500
8.400000	0.362500
8.800000	0.362500
9.200000	0.362500
9.600000	0.362500
10.000000	0.362500
0.000000	0.350000
0.400000	0.350000
0.800000	0.350000
1.200000	0.350000
1.600000	0.350000
2.000000	0.350000
2.400000	0.350000
2.800000	0.350000
3.200000	0.350000
3.600000	0.350000
4.000000	0.350000
4.400000	0.350000
4.800000	0.350000
5.200000	0.350000
5.600000	0.350000
6.000000	0.350000
6.400000	0.350000
6.800000	0.350000
7.200000	0.350000
7.600000	0.350000
8.000000	0.350000
8.400000	0.350000
8.800000	0.350000
9.200000	0.350000
9.600000	0.350000
10.000000	0.350000
0.000000	0.337500
0.400000	0.337500
0.800000	0.337500
1.200000	0.337500
1.600000	0.337500
2.000000	0.337500
2.400000	0.337500
2.800000	0.337500
3.200000	0.337500
3.600000	0.337500
4.000000	0.337500
4.400000	0.337500
4.800000	0.337500
5.200000	0.337500
5.600000	0.337500
6.000000	0.337500
6.400000	0.337500
6.800000	0.337500
7.200000	0.337500
7.600000	0.337500
8.000000	0.337500
8.400000	0.337500
8.800000	0.337500
9.200000	0.337500
9.600000	0.337500
10.000000	0.337500
0.000000	0.325000
0.400000	0.325000
0.800000	0.325000
1.200000	0.325000
1.600000	0.325000
2.000000	0.325000
2.400000	0.325000
2.800000	0.325000
3.200000	0.325000
3.600000	0.325000
4.000000	0.325000
4.400000	0.325000
4.800000	0.325000
5.200000	0.325000
5.600000	0.325000
6.000000	0.325000
6.400000	0.325000
6.800000	0.325000
7.200000	0.325000
7.600000	0.325000
8.000000	0.325000
8.400000	0.325000
8.800000	0.325000
9.200000	0.325000
9.600000	0.325000
10.000000	0.325000
0.000000	0.312500
0.400000	0.312500
0.800000	0.312500
1.200000	0.312500
1.600000	0.312500
2.000000	0.312500
2.400000	0.312500
2.800000	0.312500
3.200000	0.312500
3.600000	0.312500
4.000000	0.312500
4.400000	0.312500
4.800000	0.312500
5.200000	0.312500
5.600000	0.312500
6.000000	0.312500
6.400000	0.312500
6.800000	0.312500
7.200000	0.312500
7.600000	0.312500
8.000000	0.312500
8.400000	0.312500
8.800000	0.312500
9.200000	0.312500
9.600000	0.312500
10.000000	0.312500
0.000000	0.300000
0.400000	0.300000
0.800000	0.300000
1.200000	0.300000
1.600000	0.300000
2.000000	0.300000
2.400000	0.300000
2.800000	0.300000
3.200000	0.300000
3.600000	0.300000
4.000000	0.300000
4.400000	0.300000
4.800000	0.300000
5.200000	0.300000
5.600000	0.300000
6.000000	0.300000
6.400000	0.300000
6.800000	0.300000
7.200000	0.300000
7.600000	0.300000
8.000000	0.300000
8.400000	0.300000
8.800000	0.300000
9.200000	0.300000
9.600000	0.300000
10.000000	0.300000
0.000000	0.287500
0.400000	0.287500
0.800000	0.287500
1.200000	0.287500
1.600000	0.287500
2.000000	0.287500
2.400000	0.287500
2.800000	0.287500
3.200000	0.287500
3.600000	0.287500
4.000000	0.287500
4.400000	0.287500
4.800000	0.287500
5.200000	0.287500
5.600000	0.287500
6.000000	0.287500
6.400000	0.287500
6.800000	0.287500
7.200000	0.287500
7.600000	0.287500
8.000000	0.287500
8.400000	0.287500
8.800000	0.287500
9.200000	0.287500
9.600000	0.287500
10.000000	0.287500
0.000000	0.275000
0.400000	0.275000
0.800000	0.275000
1.200000	0.275000
1.600000	0.275000
2.000000	0.275000
2.400000	0.275000
2.800000	0.275000
3.200000	0.275000
3.600000	0.275000
4.000000	0.275000
4.400000	0.275000
4.800000	0.275000
5.200000	0.275000
5.600000	0.275000
6.000000	0.275000
6.400000	0.275000
6.800000	0.275000
7.200000	0.275000
7.600000	0.275000
8.000000	0.275000
8.400000	0.275000
8.800000	0.275000
9.200000	0.275000
9.600000	0.275000
10.000000	0.275000
0.000000	0.262500
0.400000	0.262500
0.800000	0.262500
1.200000	0.262500
1.600000	0.262500
2.000000	0.262500
2.400000	0.262500
2.800000	0.262500
3.200000	0.262500
3.600000	0.262500
4.000000	0.262500
4.400000	0.262500
4.800000	0.262500
5.200000	0.262500
5.600000	0.262500
6.000000	0.262500
6.400000	0.262500
6.800000	0.262500
7.200000	0.262500
7.600000	0.262500
8.000000	0.262500
8.400000	0.262500
8.800000	0.262500
9.200000	0.262500
9.600000	0.262500
10.000000	0.262500
0.000000	0.250000
0.400000	0.250000
0.800000	0.250000
1.200000	0.250000
1.600000	0.250000
2.000000	0.250000
2.400000	0.250000
2.800000	0.250000
3.200000	0.250000
3.600000	0.250000
4.000000	0.250000
4.400000	0.250000
4.800000	0.250000
5.200000	0.250000
5.600000	0.250000
6.000000	0.250000
6.400000	0.250000
6.800000	0.250000
7.200000	0.250000
7.600000	0.250000
8.000000	0.250000
8.400000	0.250000
8.800000	0.250000
9.200000	0.250000
9.600000	0.250000
10.000000	0.250000
0.000000	0.237500
0.400000	0.237500
0.800000	0.237500
1.200000	0.237500
1.600000	0.237500
2.000000	0.237500
2.400000	0.237500
2.800000	0.237500
3.200000	0.237500
3.600000	0.237500
4.000000	0.237500
4.400000	0.237500
4.800000	0.237500
5.200000	0.237500
5.600000	0.237500
6.000000	0.237500
6.400000	0.237500
6.800000	0.237500
7.200000	0.237500
7.600000	0.237500
8.000000	0.237500
8.400000	0.237500
8.800000	0.237500
9.200000	0.237500
9.600000	0.237500
10.000000	0.237500
0.000000	0.225000
0.400000	0.225000
0.800000	0.225000
1.200000	0.225000
1.600000	0.225000
2.000000	0.225000
2.400000	0.225000
2.800000	0.225000
3.200000	0.225000
3.600000	0.225000
4.000000	0.225000
4.400000	0.225000
4.800000	0.225000
5.200000	0.225000
5.600000	0.225000
6.000000	0.225000
6.400000	0.225000
6.800000	0.225000
7.200000	0.225000
7.600000	0.225000
8.000000	0.225000
8.400000	0.225000
8.800000	0.225000
9.200000	0.225000
9.600000	0.225000
10.000000	0.225000
0.000000	0.212500
0.400000	0.212500
0.800000	0.212500
1.200000	0.212500
1.600000	0.212500
2.000000	0.212500
2.400000	0.212500
2.800000	0.212500
3.200000	0.212500
3.600000	0.212500
4.000000	0.212500
4.400000	0.212500
4.800000	0.212500
5.200000	0.212500
5.600000	0.212500
6.000000	0.212500
6.400000	0.212500
6.800000	0.212500
7.200000	0.212500
7.600000	0.212500
8.000000	0.212500
8.400000	0.212500
8.800000	0.212500
9.200000	0.212500
9.600000	0.212500
10.000000	0.212500
0.000000	0.200000
0.400000	0.200000
0.800000	0.200000
1.200000	0.200000
1.600000	0.200000
2.000000	0.200000
2.400000	0.200000
2.800000	0.200000
3.200000	0.200000
3.600000	0.200000
4.000000	0.200000
4.400000	0.200000
4.800000	0.200000
5.200000	0.200000
5.600000	0.200000
6.000000	0.200000
6.400000	0.200000
6.800000	0.200000
7.200000	0.200000
7.600000	0.200000
8.000000	0.200000
8.400000	0.200000
8.800000	0.200000
9.200000	0.200000
9.600000	0.200000
10.000000	0.200000
0.000000	0.187500
0.400000	0.187500
0.800000	0.187500
1.200000	0.187500
1.600000	0.187500
2.000000	0.187500
2.400000	0.187500
2.800000	0.187500
3.200000	0.187500
3.600000	0.187500
4.000000	0.187500
4.400000	0.187500
4.800000	0.187500
5.200000	0.187500
5.600000	0.187500
6.000000	0.187500
6.400000	0.187500
6.800000	0.187500
7.200000	0.187500
7.600000	0.187500
8.000000	0.187500
8.400000	0.187500
8.800000	0.187500
9.200000	0.187500
9.600000	0.187500
10.000000	0.187500
0.000000	0.175000
0.400000	0.175000
0.800000	0.175000
1.200000	0.175000
1.600000	0.175000
2.000000	0.175000
2.400000	0.175000
2.800000	0.175000
3.200000	0.175000
3.600000	0.175000
4.000000	0.175000
4.400000	0.175000
4.800000	0.175000
5.200000	0.175000
5.600000	0.175000
6.000000	0.175000
6.400000	0.175000
6.800000	0.175000
7.200000	0.175000
7.600000	0.175000
8.000000	0.175000
8.400000	0.175000
8.800000	0.175000
9.200000	0.175000
9.600000	0.175000
10.000000	0.175000
0.000000	0.162500
0.400000	0.162500
0.800000	0.162500
1.200000	0.162500
1.600000	0.162500
2.000000	0.162500
2.400000	0.162500
2.800000	0.162500
3.200000	0.162500
3.600000	0.162500
4.000000	0.162500
4.400000	0.162500
4.800000	0.162500
5.200000	0.162500
5.600000	0.162500
6.000000	0.162500
6.400000	0.162500
6.800000	0.162500
7.200000	0.162500
7.600000	0.162500
8.000000	0.162500
8.400000	0.162500
8.800000	0.162500
9.200000	0.162500
9.600000	0.162500
10.000000	0.162500
0.000000	0.150000
0.400000	0.150000
0.800000	0.150000
1.200000	0.150000
1.600000	0.150000
2.000000	0.150000
2.400000	0.150000
2.800000	0.150000
3.200000	0.150000
3.600000	0.150000
4.000000	0.150000
4.400000	0.150000
4.800000	0.150000
5.200000	0.150000
5.600000	0.150000
6.000000	0.150000
6.400000	0.150000
6.800000	0.150000
7.200000	0.150000
7.600000	0.150000
8.000000	0.150000
8.400000	0.150000
8.800000	0.150000
9.200000	0.150000
9.600000	0.150000
10.000000	0.150000
0.000000	0.137500
0.400000	0.137500
0.800000	0.137500
1.200000	0.137500
1.600000	0.137500
2.000000	0.137500
2.400000	0.137500
2.800000	0.137500
3.200000	0.137500
3.600000	0.137500
4.000000	0.137500
4.400000	0.137500
4.800000	0.137500
5.200000	0.137500
5.600000	0.137500
6.000000	0.137500
6.400000	0.137500
6.800000	0.137500
7.200000	0.137500
7.600000	0.137500
8.000000	0.137500
8.400000	0.137500
8.800000	0.137500
9.200000	0.137500
9.600000	0.137500
10.000000	0.137500
0.000000	0.125000
0.400000	0.125000
0.800000	0.125000
1.200000	0.125000
1.600000	0.125000
2.000000	0.125000
2.400000	0.125000
2.800000	0.125000
3.200000	0.125000
3.600000	0.125000
4.000000	0.125000
4.400000	0.125000
4.800000	0.125000
5.200000	0.125000
5.600000	0.125000
6.000000	0.125000
6.400000	0.125000
6.800000	0.125000
7.200000	0.125000
7.600000	0.125000
8.000000	0.125000
8.400000	0.125000
8.800000	0.125000
9.200000	0.125000
9.600000	0.125000
10.000000	0.125000
0.000000	0.112500
0.400000	0.112500
0.800000	0.112500
1.200000	0.112500
1.600000	0.112500
2.000000	0.112500
2.400000	0.112500
2.800000	0.112500
3.200000	0.112500
3.600000	0.112500
4.000000	0.112500
4.400000	0.112500
4.800000	0.112500
5.200000	0.112500
5.600000	0.112500
6.000000	0.112500
6.400000	0.112500
6.800000	0.112500
7.200000	0.112500
7.600000	0.112500
8.000000	0.112500
8.400000	0.112500
8.800000	0.112500
9.200000	0.112500
9.600000	0.112500
10.000000	0.112500
0.000000	0.100000
0.400000	0.100000
0.800000	0.100000
1.200000	0.100000
1.600000	0.100000
2.000000	0.100000
2.400000	0.100000
2.800000	0.100000
3.200000	0.100000
3.600000	0.100000
4.000000	0.100000
4.400000	0.100000
4.800000	0.100000
5.200000	0.100000
5.600000	0.100000
6.000000	0.100000
6.400000	0.100000
6.800000	0.100000
7.200000	0.100000
7.600000	0.100000
8.000000	0.100000
8.400000	0.100000
8.800000	0.100000
9.200000	0.100000
9.600000	0.100000
10.000000	0.100000
0.000000	0.087500
0.400000	0.087500
0.800000	0.087500
1.200000	0.087500
1.600000	0.087500
2.000000	0.087500
2.400000	0.087500
2.800000	0.087500
3.200000	0.087500
3.600000	0.087500
4.000000	0.087500
4.400000	0.087500
4.800000	0.087500
5.200000	0.087500
5.600000	0.087500
6.000000	0.087500
6.400000	0.087500
6.800000	0.087500
7.200000	0.087500
7.600000	0.087500
8.000000	0.087500
8.400000	0.087500
8.800000	0.087500
9.200000	0.087500
9.600000	0.087500
10.000000	0.087500
0.000000	0.075000
0.400000	0.075000
0.800000	0.075000
1.200000	0.075000
1.600000	0.075000
2.000000	0.075000
2.400000	0.075000
2.800000	0.075000
3.200000	0.075000
3.600000	0.075000
4.000000	0.075000
4.400000	0.075000
4.800000	0.075000
5.200000	0.075000
5.600000	0.075000
6.000000	0.075000
6.400000	0.075000
6.800000	0.075000
7.200000	0.075000
7.600000	0.075000
8.000000	0.075000
8.400000	0.075000
8.800000	0.075000
9.200000	0.075000
9.600000	0.075000
10.000000	0.075000
0.000000	0.062500
0.400000	0.062500
0.800000	0.062500
1.200000	0.062500
1.600000	0.062500
2.000000	0.062500
2.400000	0.062500
2.800000	0.062500
3.200000	0.062500
3.600000	0.062500
4.000000	0.062500
4.400000	0.062500
4.800000	0.062500
5.200000	0.062500
5.600000	0.062500
6.000000	0.062500
6.400000	0.062500
6.800000	0.062500
7.200000	0.062500
7.600000	0.062500
8.000000	0.062500
8.400000	0.062500
8.800000	0.062500
9.200000	0.062500
9.600000	0.062500
10.000000	0.062500
0.000000	0.050000
0.400000	0.050000
0.800000	0.050000
1.200000	0.050000
1.600000	0.050000
2.000000	0.050000
2.400000	0.050000
2.800000	0.050000
3.200000	0.050000
3.600000	0.050000
4.000000	0.050000
4.400000	0.050000
4.800000	0.050000
5.200000	0.050000
5.600000	0.050000
6.000000	0.050000
6.400000	0.050000
6.800000	0.050000
7.200000	0.050000
7.600000	0.050000
8.000000	0.050000
8.400000	0.050000
8.800000	0.050000
9.200000	0.050000
9.600000	0.050000
10.000000	0.050000
0.000000	0.037500
0.400000	0.037500
0.800000	0.037500
1.200000	0.037500
1.600000	0.037500
2.000000	0.037500
2.400000	0.037500
2.800000	0.037500
3.200000	0.037500
3.600000	0.037500
4.000000	0.037500
4.400000	0.037500
4.800000	0.037500
5.200000	0.037500
5.600000	0.037500
6.000000	0.037500
6.400000	0.037500
6.800000	0.037500
7.200000	0.037500
7.600000	0.037500
8.000000	0.037500
8.400000	0.037500
8.800000	0.037500
9.200000	0.037500
9.600000	0.037500
10.000000	0.037500
0.000000	0.025000
0.400000	0.025000
0.800000	0.025000
1.200000	0.025000
1.600000	0.025000
2.000000	0.025000
2.400000	0.025000
2.800000	0.025000
3.200000	0.025000
3.600000	0.025000
4.000000	0.025000
4.400000	0.025000
4.800000	0.025000
5.200000	0.025000
5.600000	0.025000
6.000000	0.025000
6.400000	0.025000
6.800000	0.025000
7.200000	0.025000
7.600000	0.025000
8.000000	0.025000
8.400000	0.025000
8.800000	0.025000
9.200000	0.025000
9.600000	0.025000
10.000000	0.025000
0.000000	0.012500
0.400000	0.012500
0.800000	0.012500
1.200000	0.012500
1.600000	0.012500
2.000000	0.012500
2.400000	0.012500
2.800000	0.012500
3.200000	0.012500
3.600000	0.012500
4.000000	0.012500
4.400000	0.012500
4.800000	0.012500
5.200000	0.012500
5.600000	0.012500
6.000000	0.012500
6.400000	0.012500
6.800000	0.012500
7.200000	0.012500
7.600000	0.012500
8.000000	0.012500
8.400000	0.012500
8.800000	0.012500
9.200000	0.012500
9.600000	0.012500
10.000000	0.012500
0.000000	0.000000
0.400000	0.000000
0.800000	0.000000
1.200000	0.000000
1.600000	0.000000
2.000000	0.000000
2.400000	0.000000
2.800000	0.000000
3.200000	0.000000
3.600000	0.000000
4.000000	0.000000
4.400000	0.000000
4.800000	0.000000
5.200000	0.000000
5.600000	0.000000
6.000000	0.000000
6.400000	0.000000
6.800000	0.000000
7.200000	0.000000
7.600000	0.000000
8.000000	0.000000
8.400000	0.000000
8.800000	0.000000
9.200000	0.000000
9.600000	0.000000
10.000000	0.000000
ZONE T="Diffuser zone"
I = 41, J=41, k=1, F=POINT

10.000000	0.500000
10.150000	0.534995
10.300000	0.569991
10.450000	0.604986
10.600000	0.639982
10.750000	0.674977
10.900000	0.709973
11.050000	0.744968
11.200000	0.779964
11.350000	0.814959
11.500000	0.849955
11.650000	0.884950
11.800000	0.919946
11.950000	0.954941
12.100000	0.989937
12.250000	1.024932
12.400000	1.059927
12.550000	1.094923
12.700000	1.129918
12.850000	1.164914
13.000000	1.199909
13.150000	1.234905
13.300000	1.269900
13.450000	1.304896
13.600000	1.339891
13.750000	1.374887
13.900000	1.409882
14.050000	1.444878
14.200000	1.479873
14.350000	1.514868
14.500000	1.549864
14.650000	1.584859
14.800000	1.619855
14.950000	1.654850
15.100000	1.689846
15.250000	1.724841
15.400000	1.759837
15.550000	1.794832
15.700000	1.829828
15.850000	1.864823
16.000000	1.899819
10.000000	0.487500
10.150000	0.521621
10.300000	0.555741
10.450000	0.589862
10.600000	0.623982
10.750000	0.658103
10.900000	0.692223
11.050000	0.726344
11.200000	0.760465
11.350000	0.794585
11.500000	0.828706
11.650000	0.862826
11.800000	0.896947
11.950000	0.931068
12.100000	0.965188
12.250000	0.999309
12.400000	1.033429
12.550000	1.067550
12.700000	1.101670
12.850000	1.135791
13.000000	1.169912
13.150000	1.204032
13.300000	1.238153
13.450000	1.272273
13.600000	1.306394
13.750000	1.340514
13.900000	1.374635
14.050000	1.408756
14.200000	1.442876
14.350000	1.476997
14.500000	1.511117
14.650000	1.545238
14.800000	1.579359
14.950000	1.613479
15.100000	1.647600
15.250000	1.681720
15.400000	1.715841
15.550000	1.749961
15.700000	1.784082
15.850000	1.818203
16.000000	1.852323
10.000000	0.475000
10.150000	0.508246
10.300000	0.541491
10.450000	0.574737
10.600000	0.607983
10.750000	0.641228
10.900000	0.674474
11.050000	0.707720
11.200000	0.740966
11.350000	0.774211
11.500000	0.807457
11.650000	0.840703
11.800000	0.873948
11.950000	0.907194
12.100000	0.940440
12.250000	0.973685
12.400000	1.006931
12.550000	1.040177
12.700000	1.073422
12.850000	1.106668
13.000000	1.139914
13.150000	1.173160
13.300000	1.206405
13.450000	1.239651
13.600000	1.272897
13.750000	1.306142
13.900000	1.339388
14.050000	1.372634
14.200000	1.405879
14.350000	1.439125
14.500000	1.472371
14.650000	1.505616
14.800000	1.538862
14.950000	1.572108
15.100000	1.605354
15.250000	1.638599
15.400000	1.671845
15.550000	1.705091
15.700000	1.738336
15.850000	1.771582
16.000000	1.804828
10.000000	0.462500
10.150000	0.494871
10.300000	0.527242
10.450000	0.559612
10.600000	0.591983
10.750000	0.624354
10.900000	0.656725
11.050000	0.689096
11.200000	0.721466
11.350000	0.753837
11.500000	0.786208
11.650000	0.818579
11.800000	0.850950
11.950000	0.883320
12.100000	0.915691
12.250000	0.948062
12.400000	0.980433
12.550000	1.012804
12.700000	1.045174
12.850000	1.077545
13.000000	1.109916
13.150000	1.142287
13.300000	1.174658
13.450000	1.207029
13.600000	1.239399
13.750000	1.271770
13.900000	1.304141
14.050000	1.336512
14.200000	1.368883
14.350000	1.401253
14.500000	1.433624
14.650000	1.465995
14.800000	1.498366
14.950000	1.530737
15.100000	1.563107
15.250000	1.595478
15.400000	1.627849
15.550000	1.660220
15.700000	1.692591
15.850000	1.724961
16.000000	1.757332
10.000000	0.450000
10.150000	0.481496
10.300000	0.512992
10.450000	0.544488
10.600000	0.575984
10.750000	0.607480
10.900000	0.638976
11.050000	0.670471
11.200000	0.701967
11.350000	0.733463
11.500000	0.764959
11.650000	0.796455
11.800000	0.827951
11.950000	0.859447
12.100000	0.890943
12.250000	0.922439
12.400000	0.953935
12.550000	0.985431
12.700000	1.016927
12.850000	1.048422
13.000000	1.079918
13.150000	1.111414
13.300000	1.142910
13.450000	1.174406
13.600000	1.205902
13.750000	1.237398
13.900000	1.268894
14.050000	1.300390
14.200000	1.331886
14.350000	1.363382
14.500000	1.394878
14.650000	1.426373
14.800000	1.457869
14.950000	1.489365
15.100000	1.520861
15.250000	1.552357
15.400000	1.583853
15.550000	1.615349
15.700000	1.646845
15.850000	1.678341
16.000000	1.709837
10.000000	0.437500
10.150000	0.468121
10.300000	0.498742
10.450000	0.529363
10.600000	0.559984
10.750000	0.590605
10.900000	0.621226
11.050000	0.651847
11.200000	0.682468
11.350000	0.713089
11.500000	0.743710
11.650000	0.774331
11.800000	0.804952
11.950000	0.835573
12.100000	0.866194
12.250000	0.896815
12.400000	0.927437
12.550000	0.958058
12.700000	0.988679
12.850000	1.019300
13.000000	1.049921
13.150000	1.080542
13.300000	1.111163
13.450000	1.141784
13.600000	1.172405
13.750000	1.203026
13.900000	1.233647
14.050000	1.264268
14.200000	1.294889
14.350000	1.325510
14.500000	1.356131
14.650000	1.386752
14.800000	1.417373
14.950000	1.447994
15.100000	1.478615
15.250000	1.509236
15.400000	1.539857
15.550000	1.570478
15.700000	1.601099
15.850000	1.631720
16.000000	1.662341
10.000000	0.425000
10.150000	0.454746
10.300000	0.484492
10.450000	0.514238
10.600000	0.543985
10.750000	0.573731
10.900000	0.603477
11.050000	0.633223
11.200000	0.662969
11.350000	0.692715
11.500000	0.722461
11.650000	0.752208
11.800000	0.781954
11.950000	0.811700
12.100000	0.841446
12.250000	0.871192
12.400000	0.900938
12.550000	0.930684
12.700000	0.960431
12.850000	0.990177
13.000000	1.019923
13.150000	1.049669
13.300000	1.079415
13.450000	1.109161
13.600000	1.138907
13.750000	1.168654
13.900000	1.198400
14.050000	1.228146
14.200000	1.257892
14.350000	1.287638
14.500000	1.317384
14.650000	1.347131
14.800000	1.376877
14.950000	1.406623
15.100000	1.436369
15.250000	1.466115
15.400000	1.495861
15.550000	1.525607
15.700000	1.555354
15.850000	1.585100
16.000000	1.614846
10.000000	0.412500
10.150000	0.441371
10.300000	0.470243
10.450000	0.499114
10.600000	0.527985
10.750000	0.556856
10.900000	0.585728
11.050000	0.614599
11.200000	0.643470
11.350000	0.672341
11.500000	0.701213
11.650000	0.730084
11.800000	0.758955
11.950000	0.787826
12.100000	0.816698
12.250000	0.845569
12.400000	0.874440
12.550000	0.903311
12.700000	0.932183
12.850000	0.961054
13.000000	0.989925
13.150000	1.018796
13.300000	1.047668
13.450000	1.076539
13.600000	1.105410
13.750000	1.134281
13.900000	1.163153
14.050000	1.192024
14.200000	1.220895
14.350000	1.249767
14.500000	1.278638
14.650000	1.307509
14.800000	1.336380
14.950000	1.365252
15.100000	1.394123
15.250000	1.422994
15.400000	1.451865
15.550000	1.480737
15.700000	1.509608
15.850000	1.538479
16.000000	1.567350
10.000000	0.400000
10.150000	0.427996
10.300000	0.455993
10.450000	0.483989
10.600000	0.511985
10.750000	0.539982
10.900000	0.567978
11.050000	0.595975
11.200000	0.623971
11.350000	0.651967
11.500000	0.679964
11.650000	0.707960
11.800000	0.735956
11.950000	0.763953
12.100000	0.791949
12.250000	0.819946
12.400000	0.847942
12.550000	0.875938
12.700000	0.903935
12.850000	0.931931
13.000000	0.959927
13.150000	0.987924
13.300000	1.015920
13.450000	1.043917
13.600000	1.071913
13.750000	1.099909
13.900000	1.127906
14.050000	1.155902
14.200000	1.183898
14.350000	1.211895
14.500000	1.239891
14.650000	1.267888
14.800000	1.295884
14.950000	1.323880
15.100000	1.351877
15.250000	1.379873
15.400000	1.407869
15.550000	1.435866
15.700000	1.463862
15.850000	1.491859
16.000000	1.519855
10.000000	0.387500
10.150000	0.414621
10.300000	0.441743
10.450000	0.468864
10.600000	0.495986
10.750000	0.523107
10.900000	0.550229
11.050000	0.577350
11.200000	0.604472
11.350000	0.631593
11.500000	0.658715
11.650000	0.685836
11.800000	0.712958
11.950000	0.740079
12.100000	0.767201
12.250000	0.794322
12.400000	0.821444
12.550000	0.848565
12.700000	0.875687
12.850000	0.902808
13.000000	0.929930
13.150000	0.957051
13.300000	0.984173
13.450000	1.011294
13.600000	1.038416
13.750000	1.065537
13.900000	1.092659
14.050000	1.119780
14.200000	1.146902
14.350000	1.174023
14.500000	1.201145
14.650000	1.228266
14.800000	1.255388
14.950000	1.282509
15.100000	1.309631
15.250000	1.336752
15.400000	1.363873
15.550000	1.390995
15.700000	1.418116
15.850000	1.445238
16.000000	1.472359
10.000000	0.375000
10.150000	0.401247
10.300000	0.427493
10.450000	0.453740
10.600000	0.479986
10.750000	0.506233
10.900000	0.532480
11.050000	0.558726
11.200000	0.584973
11.350000	0.611219
11.500000	0.637466
11.650000	0.663713
11.800000	0.689959
11.950000	0.716206
12.100000	0.742452
12.250000	0.768699
12.400000	0.794946
12.550000	0.821192
12.700000	0.847439
12.850000	0.873685
13.000000	0.899932
13.150000	0.926179
13.300000	0.952425
13.450000	0.978672
13.600000	1.004918
13.750000	1.031165
13.900000	1.057412
14.050000	1.083658
14.200000	1.109905
14.350000	1.136151
14.500000	1.162398
14.650000	1.188645
14.800000	1.214891
14.950000	1.241138
15.100000	1.267384
15.250000	1.293631
15.400000	1.319878
15.550000	1.346124
15.700000	1.372371
15.850000	1.398617
16.000000	1.424864
10.000000	0.362500
10.150000	0.387872
10.300000	0.413243
10.450000	0.438615
10.600000	0.463987
10.750000	0.489359
10.900000	0.514730
11.050000	0.540102
11.200000	0.565474
11.350000	0.590845
11.500000	0.616217
11.650000	0.641589
11.800000	0.666961
11.950000	0.692332
12.100000	0.717704
12.250000	0.743076
12.400000	0.768447
12.550000	0.793819
12.700000	0.819191
12.850000	0.844563
13.000000	0.869934
13.150000	0.895306
13.300000	0.920678
13.450000	0.946049
13.600000	0.971421
13.750000	0.996793
13.900000	1.022165
14.050000	1.047536
14.200000	1.072908
14.350000	1.098280
14.500000	1.123651
14.650000	1.149023
14.800000	1.174395
14.950000	1.199767
15.100000	1.225138
15.250000	1.250510
15.400000	1.275882
15.550000	1.301253
15.700000	1.326625
15.850000	1.351997
16.000000	1.377368
10.000000	0.350000
10.150000	0.374497
10.300000	0.398994
10.450000	0.423490
10.600000	0.447987
10.750000	0.472484
10.900000	0.496981
11.050000	0.521478
11.200000	0.545975
11.350000	0.570471
11.500000	0.594968
11.650000	0.619465
11.800000	0.643962
11.950000	0.668459
12.100000	0.692956
12.250000	0.717452
12.400000	0.741949
12.550000	0.766446
12.700000	0.790943
12.850000	0.815440
13.000000	0.839937
13.150000	0.864433
13.300000	0.888930
13.450000	0.913427
13.600000	0.937924
13.750000	0.962421
13.900000	0.986917
14.050000	1.011414
14.200000	1.035911
14.350000	1.060408
14.500000	1.084905
14.650000	1.109402
14.800000	1.133898
14.950000	1.158395
15.100000	1.182892
15.250000	1.207389
15.400000	1.231886
15.550000	1.256383
15.700000	1.280879
15.850000	1.305376
16.000000	1.329873
10.000000	0.337500
10.150000	0.361122
10.300000	0.384744
10.450000	0.408366
10.600000	0.431988
10.750000	0.455610
10.900000	0.479232
11.050000	0.502854
11.200000	0.526476
11.350000	0.550097
11.500000	0.573719
11.650000	0.597341
11.800000	0.620963
11.950000	0.644585
12.100000	0.668207
12.250000	0.691829
12.400000	0.715451
12.550000	0.739073
12.700000	0.762695
12.850000	0.786317
13.000000	0.809939
13.150000	0.833561
13.300000	0.857183
13.450000	0.880805
13.600000	0.904427