TITLE = "SBBGK1dMBX100-P0RK4w10000IC1"
VARIABLES = "x" "density" "velocity" "energy" "pressure" "temperature" "fugacity"
ZONE T = "time 0.0000"
I = 100, J = 1, K = 1, F = POINT

0.000000	1.000000	0.750000	1.281250	0.000000	4.000000	0.282095	
0.010101	1.000000	0.750000	1.281250	0.000000	4.000000	0.282095	
0.020202	1.000000	0.750000	1.281250	0.000000	4.000000	0.282095	
0.030303	1.000000	0.750000	1.281250	0.000000	4.000000	0.282095	
0.040404	1.000000	0.750000	1.281250	0.000000	4.000000	0.282095	
0.050505	1.000000	0.750000	1.281250	0.000000	4.000000	0.282095	
0.060606	1.000000	0.750000	1.281250	0.000000	4.000000	0.282095	
0.070707	1.000000	0.750000	1.281250	0.000000	4.000000	0.282095	
0.080808	1.000000	0.750000	1.281250	0.000000	4.000000	0.282095	
0.090909	1.000000	0.750000	1.281250	0.000000	4.000000	0.282095	
0.101010	1.000000	0.750000	1.281250	0.000000	4.000000	0.282095	
0.111111	1.000000	0.750000	1.281250	0.000000	4.000000	0.282095	
0.121212	1.000000	0.750000	1.281250	0.000000	4.000000	0.282095	
0.131313	1.000000	0.750000	1.281250	0.000000	4.000000	0.282095	
0.141414	1.000000	0.750000	1.281250	0.000000	4.000000	0.282095	
0.151515	1.000000	0.750000	1.281250	0.000000	4.000000	0.282095	
0.161616	1.000000	0.750000	1.281250	0.000000	4.000000	0.282095	
0.171717	1.000000	0.750000	1.281250	0.000000	4.000000	0.282095	
0.181818	1.000000	0.750000	1.281250	0.000000	4.000000	0.282095	
0.191919	1.000000	0.750000	1.281250	0.000000	4.000000	0.282095	
0.202020	1.000000	0.750000	1.281250	0.000000	4.000000	0.282095	
0.212121	1.000000	0.750000	1.281250	0.000000	4.000000	0.282095	
0.222222	1.000000	0.750000	1.281250	0.000000	4.000000	0.282095	
0.232323	1.000000	0.750000	1.281250	0.000000	4.000000	0.282095	
0.242424	1.000000	0.750000	1.281250	0.000000	4.000000	0.282095	
0.252525	1.000000	0.750000	1.281250	0.000000	4.000000	0.282095	
0.262626	1.000000	0.750000	1.281250	0.000000	4.000000	0.282095	
0.272727	1.000000	0.750000	1.281250	0.000000	4.000000	0.282095	
0.282828	1.000000	0.750000	1.281250	0.000000	4.000000	0.282095	
0.292929	1.000000	0.750000	1.281250	0.000000	4.000000	0.282095	
0.303030	1.000000	0.750000	1.281250	0.000000	4.000000	0.282095	
0.313131	1.000000	0.750000	1.281250	0.000000	4.000000	0.282095	
0.323232	1.000000	0.750000	1.281250	0.000000	4.000000	0.282095	
0.333333	1.000000	0.750000	1.281250	0.000000	4.000000	0.282095	
0.343434	1.000000	0.750000	1.281250	0.000000	4.000000	0.282095	
0.353535	1.000000	0.750000	1.281250	0.000000	4.000000	0.282095	
0.363636	1.000000	0.750000	1.281250	0.000000	4.000000	0.282095	
0.373737	1.000000	0.750000	1.281250	0.000000	4.000000	0.282095	
0.383838	1.000000	0.750000	1.281250	0.000000	4.000000	0.282095	
0.393939	1.000000	0.750000	1.281250	0.000000	4.000000	0.282095	
0.404040	1.000000	0.750000	1.281250	0.000000	4.000000	0.282095	
0.414141	1.000000	0.750000	1.281250	0.000000	4.000000	0.282095	
0.424242	1.000000	0.750000	1.281250	0.000000	4.000000	0.282095	
0.434343	1.000000	0.750000	1.281250	0.000000	4.000000	0.282095	
0.444444	1.000000	0.750000	1.281250	0.000000	4.000000	0.282095	
0.454545	1.000000	0.750000	1.281250	0.000000	4.000000	0.282095	
0.464646	1.000000	0.750000	1.281250	0.000000	4.000000	0.282095	
0.474747	1.000000	0.750000	1.281250	0.000000	4.000000	0.282095	
0.484848	1.000000	0.750000	1.281250	0.000000	4.000000	0.282095	
0.494949	1.000000	0.750000	1.281250	0.000000	4.000000	0.282095	
0.505051	0.125000	0.000000	0.100000	0.000000	3.200000	0.039424	
0.515152	0.125000	0.000000	0.100000	0.000000	3.200000	0.039424	
0.525253	0.125000	0.000000	0.100000	0.000000	3.200000	0.039424	
0.535354	0.125000	0.000000	0.100000	0.000000	3.200000	0.039424	
0.545455	0.125000	0.000000	0.100000	0.000000	3.200000	0.039424	
0.555556	0.125000	0.000000	0.100000	0.000000	3.200000	0.039424	
0.565657	0.125000	0.000000	0.100000	0.000000	3.200000	0.039424	
0.575758	0.125000	0.000000	0.100000	0.000000	3.200000	0.039424	
0.585859	0.125000	0.000000	0.100000	0.000000	3.200000	0.039424	
0.595960	0.125000	0.000000	0.100000	0.000000	3.200000	0.039424	
0.606061	0.125000	0.000000	0.100000	0.000000	3.200000	0.039424	
0.616162	0.125000	0.000000	0.100000	0.000000	3.200000	0.039424	
0.626263	0.125000	0.000000	0.100000	0.000000	3.200000	0.039424	
0.636364	0.125000	0.000000	0.100000	0.000000	3.200000	0.039424	
0.646465	0.125000	0.000000	0.100000	0.000000	3.200000	0.039424	
0.656566	0.125000	0.000000	0.100000	0.000000	3.200000	0.039424	
0.666667	0.125000	0.000000	0.100000	0.000000	3.200000	0.039424	
0.676768	0.125000	0.000000	0.100000	0.000000	3.200000	0.039424	
0.686869	0.125000	0.000000	0.100000	0.000000	3.200000	0.039424	
0.696970	0.125000	0.000000	0.100000	0.000000	3.200000	0.039424	
0.707071	0.125000	0.000000	0.100000	0.000000	3.200000	0.039424	
0.717172	0.125000	0.000000	0.100000	0.000000	3.200000	0.039424	
0.727273	0.125000	0.000000	0.100000	0.000000	3.200000	0.039424	
0.737374	0.125000	0.000000	0.100000	0.000000	3.200000	0.039424	
0.747475	0.125000	0.000000	0.100000	0.000000	3.200000	0.039424	
0.757576	0.125000	0.000000	0.100000	0.000000	3.200000	0.039424	
0.767677	0.125000	0.000000	0.100000	0.000000	3.200000	0.039424	
0.777778	0.125000	0.000000	0.100000	0.000000	3.200000	0.039424	
0.787879	0.125000	0.000000	0.100000	0.000000	3.200000	0.039424	
0.797980	0.125000	0.000000	0.100000	0.000000	3.200000	0.039424	
0.808081	0.125000	0.000000	0.100000	0.000000	3.200000	0.039424	
0.818182	0.125000	0.000000	0.100000	0.000000	3.200000	0.039424	
0.828283	0.125000	0.000000	0.100000	0.000000	3.200000	0.039424	
0.838384	0.125000	0.000000	0.100000	0.000000	3.200000	0.039424	
0.848485	0.125000	0.000000	0.100000	0.000000	3.200000	0.039424	
0.858586	0.125000	0.000000	0.100000	0.000000	3.200000	0.039424	
0.868687	0.125000	0.000000	0.100000	0.000000	3.200000	0.039424	
0.878788	0.125000	0.000000	0.100000	0.000000	3.200000	0.039424	
0.888889	0.125000	0.000000	0.100000	0.000000	3.200000	0.039424	
0.898990	0.125000	0.000000	0.100000	0.000000	3.200000	0.039424	
0.909091	0.125000	0.000000	0.100000	0.000000	3.200000	0.039424	
0.919192	0.125000	0.000000	0.100000	0.000000	3.200000	0.039424	
0.929293	0.125000	0.000000	0.100000	0.000000	3.200000	0.039424	
0.939394	0.125000	0.000000	0.100000	0.000000	3.200000	0.039424	
0.949495	0.125000	0.000000	0.100000	0.000000	3.200000	0.039424	
0.959596	0.125000	0.000000	0.100000	0.000000	3.200000	0.039424	
0.969697	0.125000	0.000000	0.100000	0.000000	3.200000	0.039424	
0.979798	0.125000	0.000000	0.100000	0.000000	3.200000	0.039424	
0.989899	0.125000	0.000000	0.100000	0.000000	3.200000	0.039424	
1.000000	0.125000	0.000000	0.100000	0.000000	3.200000	0.039424	
ZONE T = "time 0.0002"
I = 100, J = 1, K = 1, F = POINT

0.000000	1.000000	0.750000	1.281250	1.000000	4.000000	0.282095	
0.010101	1.000000	0.750000	1.281250	1.000000	4.000000	0.282095	
0.020202	1.000000	0.750000	1.281250	1.000000	4.000000	0.282095	
0.030303	1.000000	0.750000	1.281250	1.000000	4.000000	0.282095	
0.040404	1.000000	0.750000	1.281250	1.000000	4.000000	0.282095	
0.050505	1.000000	0.750000	1.281250	1.000000	4.000000	0.282095	
0.060606	1.000000	0.750000	1.281250	1.000000	4.000000	0.282095	
0.070707	1.000000	0.750000	1.281250	1.000000	4.000000	0.282095	
0.080808	1.000000	0.750000	1.281250	1.000000	4.000000	0.282095	
0.090909	1.000000	0.750000	1.281250	1.000000	4.000000	0.282095	
0.101010	1.000000	0.750000	1.281250	1.000000	4.000000	0.282095	
0.111111	1.000000	0.750000	1.281250	1.000000	4.000000	0.282095	
0.121212	1.000000	0.750000	1.281250	1.000000	4.000000	0.282095	
0.131313	1.000000	0.750000	1.281250	1.000000	4.000000	0.282095	
0.141414	1.000000	0.750000	1.281250	1.000000	4.000000	0.282095	
0.151515	1.000000	0.750000	1.281250	1.000000	4.000000	0.282095	
0.161616	1.000000	0.750000	1.281250	1.000000	4.000000	0.282095	
0.171717	1.000000	0.750000	1.281250	1.000000	4.000000	0.282095	
0.181818	1.000000	0.750000	1.281250	1.000000	4.000000	0.282095	
0.191919	1.000000	0.750000	1.281250	1.000000	4.000000	0.282095	
0.202020	1.000000	0.750000	1.281250	1.000000	4.000000	0.282095	
0.212121	1.000000	0.750000	1.281250	1.000000	4.000000	0.282095	
0.222222	1.000000	0.750000	1.281250	1.000000	4.000000	0.282095	
0.232323	1.000000	0.750000	1.281250	1.000000	4.000000	0.282095	
0.242424	1.000000	0.750000	1.281250	1.000000	4.000000	0.282095	
0.252525	1.000000	0.750000	1.281250	1.000000	4.000000	0.282095	
0.262626	1.000000	0.750000	1.281250	1.000000	4.000000	0.282095	
0.272727	1.000000	0.750000	1.281250	1.000000	4.000000	0.282095	
0.282828	1.000000	0.750000	1.281250	1.000000	4.000000	0.282095	
0.292929	1.000000	0.750000	1.281250	1.000000	4.000000	0.282095	
0.303030	1.000000	0.750000	1.281250	1.000000	4.000000	0.282095	
0.313131	1.000000	0.750000	1.281250	1.000000	4.000000	0.282095	
0.323232	1.000000	0.750000	1.281250	1.000000	4.000000	0.282095	
0.333333	1.000000	0.750000	1.281250	1.000000	4.000000	0.282095	
0.343434	1.000000	0.750000	1.281250	1.000000	4.000000	0.282095	
0.353535	1.000000	0.750000	1.281250	1.000000	4.000000	0.282095	
0.363636	1.000000	0.750000	1.281250	1.000000	4.000000	0.282095	
0.373737	1.000000	0.750000	1.281250	1.000000	4.000000	0.282095	
0.383838	1.000000	0.750000	1.281250	1.000000	4.000000	0.282095	
0.393939	1.000000	0.750000	1.281250	1.000000	4.000000	0.282095	
0.404040	1.000000	0.750000	1.281250	1.000000	4.000000	0.282095	
0.414141	1.000000	0.750000	1.281250	1.000000	4.000000	0.282095	
0.424242	1.000000	0.750000	1.281250	1.000000	4.000000	0.282095	
0.434343	1.000000	0.750000	1.281250	1.000000	4.000000	0.282095	
0.444444	1.000000	0.750000	1.281250	1.000000	4.000000	0.282095	
0.454545	1.000000	0.750000	1.281250	1.000000	4.000000	0.282095	
0.464646	1.000000	0.750000	1.281250	1.000000	4.000000	0.282095	
0.474747	1.000000	0.750000	1.281250	1.000000	4.000000	0.282095	
0.484848	0.999998	0.750005	1.281245	0.999991	3.999972	0.282095	
0.494949	0.995724	0.759410	1.275435	0.988317	3.970245	0.281939	
0.505051	0.145035	0.299739	0.157503	0.150987	4.164165	0.040099	
0.515152	0.125016	0.000354	0.100070	0.100070	3.201856	0.039417	
0.525253	0.125000	0.000000	0.100000	0.100000	3.200000	0.039424	
0.535354	0.125000	0.000000	0.100000	0.100000	3.200000	0.039424	
0.545455	0.125000	0.000000	0.100000	0.100000	3.200000	0.039424	
0.555556	0.125000	-0.000000	0.100000	0.100000	3.200000	0.039424	
0.565657	0.125000	-0.000000	0.100000	0.100000	3.200000	0.039424	
0.575758	0.125000	-0.000000	0.100000	0.100000	3.200000	0.039424	
0.585859	0.125000	-0.000000	0.100000	0.100000	3.200000	0.039424	
0.595960	0.125000	-0.000000	0.100000	0.100000	3.200000	0.039424	
0.606061	0.125000	-0.000000	0.100000	0.100000	3.200000	0.039424	
0.616162	0.125000	-0.000000	0.100000	0.100000	3.200000	0.039424	
0.626263	0.125000	-0.000000	0.100000	0.100000	3.200000	0.039424	
0.636364	0.125000	-0.000000	0.100000	0.100000	3.200000	0.039424	
0.646465	0.125000	-0.000000	0.100000	0.100000	3.200000	0.039424	
0.656566	0.125000	-0.000000	0.100000	0.100000	3.200000	0.039424	
0.666667	0.125000	-0.000000	0.100000	0.100000	3.200000	0.039424	
0.676768	0.125000	-0.000000	0.100000	0.100000	3.200000	0.039424	
0.686869	0.125000	-0.000000	0.100000	0.100000	3.200000	0.039424	
0.696970	0.125000	-0.000000	0.100000	0.100000	3.200000	0.039424	
0.707071	0.125000	-0.000000	0.100000	0.100000	3.200000	0.039424	
0.717172	0.125000	-0.000000	0.100000	0.100000	3.200000	0.039424	
0.727273	0.125000	-0.000000	0.100000	0.100000	3.200000	0.039424	
0.737374	0.125000	-0.000000	0.100000	0.100000	3.200000	0.039424	
0.747475	0.125000	-0.000000	0.100000	0.100000	3.200000	0.039424	
0.757576	0.125000	-0.000000	0.100000	0.100000	3.200000	0.039424	
0.767677	0.125000	-0.000000	0.100000	0.100000	3.200000	0.039424	
0.777778	0.125000	-0.000000	0.100000	0.100000	3.200000	0.039424	
0.787879	0.125000	-0.000000	0.100000	0.100000	3.200000	0.039424	
0.797980	0.125000	-0.000000	0.100000	0.100000	3.200000	0.039424	
0.808081	0.125000	-0.000000	0.100000	0.100000	3.200000	0.039424	
0.818182	0.125000	-0.000000	0.100000	0.100000	3.200000	0.039424	
0.828283	0.125000	-0.000000	0.100000	0.100000	3.200000	0.039424	
0.838384	0.125000	-0.000000	0.100000	0.100000	3.200000	0.039424	
0.848485	0.125000	-0.000000	0.100000	0.100000	3.200000	0.039424	
0.858586	0.125000	-0.000000	0.100000	0.100000	3.200000	0.039424	
0.868687	0.125000	-0.000000	0.100000	0.100000	3.200000	0.039424	
0.878788	0.125000	-0.000000	0.100000	0.100000	3.200000	0.039424	
0.888889	0.125000	-0.000000	0.100000	0.100000	3.200000	0.039424	
0.898990	0.125000	-0.000000	0.100000	0.100000	3.200000	0.039424	
0.909091	0.125000	-0.000000	0.100000	0.100000	3.200000	0.039424	
0.919192	0.125000	-0.000000	0.100000	0.100000	3.200000	0.039424	
0.929293	0.125000	-0.000000	0.100000	0.100000	3.200000	0.039424	
0.939394	0.125000	-0.000000	0.100000	0.100000	3.200000	0.039424	
0.949495	0.125000	-0.000000	0.100000	0.100000	3.200000	0.039424	
0.959596	0.125000	-0.000000	0.100000	0.100000	3.200000	0.039424	
0.969697	0.125000	-0.000000	0.100000	0.100000	3.200000	0.039424	
0.979798	0.125000	-0.000000	0.100000	0.100000	3.200000	0.039424	
0.989899	0.125000	-0.000000	0.100000	0.100000	3.200000	0.039424	
1.000000	0.125000	-0.000000	0.100000	0.100000	3.200000	0.039424	
ZONE T = "time 0.0004"
I = 100, J = 1, K = 1, F = POINT

0.000000	1.000000	0.750000	1.281250	1.000000	4.000000	0.282095	
0.010101	1.000000	0.750000	1.281250	1.000000	4.000000	0.282095	
0.020202	1.000000	0.750000	1.281250	1.000000	4.000000	0.282095	
0.030303	1.000000	0.750000	1.281250	1.000000	4.000000	0.282095	
0.040404	1.000000	0.750000	1.281250	1.000000	4.000000	0.282095	
0.050505	1.000000	0.750000	1.281250	1.000000	4.000000	0.282095	
0.060606	1.000000	0.750000	1.281250	1.000000	4.000000	0.282095	
0.070707	1.000000	0.750000	1.281250	1.000000	4.000000	0.282095	
0.080808	1.000000	0.750000	1.281250	1.000000	4.000000	0.282095	
0.090909	1.000000	0.750000	1.281250	1.000000	4.000000	0.282095	
0.101010	1.000000	0.750000	1.281250	1.000000	4.000000	0.282095	
0.111111	1.000000	0.750000	1.281250	1.000000	4.000000	0.282095	
0.121212	1.000000	0.750000	1.281250	1.000000	4.000000	0.282095	
0.131313	1.000000	0.750000	1.281250	1.000000	4.000000	0.282095	
0.141414	1.000000	0.750000	1.281250	1.000000	4.000000	0.282095	
0.151515	1.000000	0.750000	1.281250	1.000000	4.000000	0.282095	
0.161616	1.000000	0.750000	1.281250	1.000000	4.000000	0.282095	
0.171717	1.000000	0.750000	1.281250	1.000000	4.000000	0.282095	
0.181818	1.000000	0.750000	1.281250	1.000000	4.000000	0.282095	
0.191919	1.000000	0.750000	1.281250	1.000000	4.000000	0.282095	
0.202020	1.000000	0.750000	1.281250	1.000000	4.000000	0.282095	
0.212121	1.000000	0.750000	1.281250	1.000000	4.000000	0.282095	
0.222222	1.000000	0.750000	1.281250	1.000000	4.000000	0.282095	
0.232323	1.000000	0.750000	1.281250	1.000000	4.000000	0.282095	
0.242424	1.000000	0.750000	1.281250	1.000000	4.000000	0.282095	
0.252525	1.000000	0.750000	1.281250	1.000000	4.000000	0.282095	
0.262626	1.000000	0.750000	1.281250	1.000000	4.000000	0.282095	
0.272727	1.000000	0.750000	1.281250	1.000000	4.000000	0.282095	
0.282828	1.000000	0.750000	1.281250	1.000000	4.000000	0.282095	
0.292929	1.000000	0.750000	1.281250	1.000000	4.000000	0.282095	
0.303030	1.000000	0.750000	1.281250	1.000000	4.000000	0.282095	
0.313131	1.000000	0.750000	1.281250	1.000000	4.000000	0.282095	
0.323232	1.000000	0.750000	1.281250	1.000000	4.000000	0.282095	
0.333333	1.000000	0.750000	1.281250	1.000000	4.000000	0.282095	
0.343434	1.000000	0.750000	1.281250	1.000000	4.000000	0.282095	
0.353535	1.000000	0.750000	1.281250	1.000000	4.000000	0.282095	
0.363636	1.000000	0.750000	1.281250	1.000000	4.000000	0.282095	
0.373737	1.000000	0.750000	1.281250	1.000000	4.000000	0.282095	
0.383838	1.000000	0.750000	1.281250	1.000000	4.000000	0.282095	
0.393939	1.000000	0.750000	1.281250	1.000000	4.000000	0.282095	
0.404040	1.000000	0.750000	1.281250	1.000000	4.000000	0.282095	
0.414141	1.000000	0.750000	1.281250	1.000000	4.000000	0.282095	
0.424242	1.000000	0.750000	1.281250	1.000000	4.000000	0.282095	
0.434343	1.000000	0.750000	1.281250	1.000000	4.000000	0.282095	
0.444444	1.000000	0.750000	1.281250	1.000000	4.000000	0.282095	
0.454545	1.000000	0.750000	1.281250	1.000000	4.000000	0.282095	
0.464646	1.000000	0.750000	1.281250	1.000000	4.000000	0.282095	
0.474747	1.000000	0.750000	1.281250	1.000000	4.000000	0.282095	
0.484848	0.999987	0.750041	1.281207	0.999931	3.999774	0.282099	
0.494949	0.991497	0.768694	1.270206	0.977273	3.942614	0.281724	
0.505051	0.164933	0.526377	0.214028	0.191179	4.636520	0.043215	
0.515152	0.125127	0.002877	0.100564	0.100564	3.214774	0.039373	
0.525253	0.125000	0.000001	0.100000	0.100000	3.200007	0.039424	
0.535354	0.125000	0.000000	0.100000	0.100000	3.200000	0.039424	
0.545455	0.125000	0.000000	0.100000	0.100000	3.200000	0.039424	
0.555556	0.125000	-0.000000	0.100000	0.100000	3.200000	0.039424	
0.565657	0.125000	-0.000000	0.100000	0.100000	3.200000	0.039424	
0.575758	0.125000	-0.000000	0.100000	0.100000	3.200000	0.039424	
0.585859	0.125000	-0.000000	0.100000	0.100000	3.200000	0.039424	
0.595960	0.125000	-0.000000	0.100000	0.100000	3.200000	0.039424	
0.606061	0.125000	-0.000000	0.100000	0.100000	3.200000	0.039424	
0.616162	0.125000	-0.000000	0.100000	0.100000	3.200000	0.039424	
0.626263	0.125000	-0.000000	0.100000	0.100000	3.200000	0.039424	
0.636364	0.125000	-0.000000	0.100000	0.100000	3.200000	0.039424	
0.646465	0.125000	-0.000000	0.100000	0.100000	3.200000	0.039424	
0.656566	0.125000	-0.000000	0.100000	0.100000	3.200000	0.039424	
0.666667	0.125000	-0.000000	0.100000	0.100000	3.200000	0.039424	
0.676768	0.125000	-0.000000	0.100000	0.100000	3.200000	0.039424	
0.686869	0.125000	-0.000000	0.100000	0.100000	3.200000	0.039424	
0.696970	0.125000	-0.000000	0.100000	0.100000	3.200000	0.039424	
0.707071	0.125000	-0.000000	0.100000	0.100000	3.200000	0.039424	
0.717172	0.125000	-0.000000	0.100000	0.100000	3.200000	0.039424	
0.727273	0.125000	-0.000000	0.100000	0.100000	3.200000	0.039424	
0.737374	0.125000	-0.000000	0.100000	0.100000	3.200000	0.039424	
0.747475	0.125000	-0.000000	0.100000	0.100000	3.200000	0.039424	
0.757576	0.125000	-0.000000	0.100000	0.100000	3.200000	0.039424	
0.767677	0.125000	-0.000000	0.100000	0.100000	3.200000	0.039424	
0.777778	0.125000	-0.000000	0.100000	0.100000	3.200000	0.039424	
0.787879	0.125000	-0.000000	0.100000	0.100000	3.200000	0.039424	
0.797980	0.125000	-0.000000	0.100000	0.100000	3.200000	0.039424	
0.808081	0.125000	-0.000000	0.100000	0.100000	3.200000	0.039424	
0.818182	0.125000	-0.000000	0.100000	0.100000	3.200000	0.039424	
0.828283	0.125000	-0.000000	0.100000	0.100000	3.200000	0.039424	
0.838384	0.125000	-0.000000	0.100000	0.100000	3.200000	0.039424	
0.848485	0.125000	-0.000000	0.100000	0.100000	3.200000	0.039424	
0.858586	0.125000	-0.000000	0.100000	0.100000	3.200000	0.039424	
0.868687	0.125000	-0.000000	0.100000	0.100000	3.200000	0.039424	
0.878788	0.125000	-0.000000	0.100000	0.100000	3.200000	0.039424	
0.888889	0.125000	-0.000000	0.100000	0.100000	3.200000	0.039424	
0.898990	0.125000	-0.000000	0.100000	0.100000	3.200000	0.039424	
0.909091	0.125000	-0.000000	0.100000	0.100000	3.200000	0.039424	
0.919192	0.125000	-0.000000	0.100000	0.100000	3.200000	0.039424	
0.929293	0.125000	-0.000000	0.100000	0.100000	3.200000	0.039424	
0.939394	0.125000	-0.000000	0.100000	0.100000	3.200000	0.039424	
0.949495	0.125000	-0.000000	0.100000	0.100000	3.200000	0.039424	
0.959596	0.125000	-0.000000	0.100000	0.100000	3.200000	0.039424	
0.969697	0.125000	-0.000000	0.100000	0.100000	3.200000	0.039424	
0.979798	0.125000	-0.000000	0.100000	0.100000	3.200000	0.039424	
0.989899	0.125000	-0.000000	0.100000	0.100000	3.200000	0.039424	
1.000000	0.125000	-0.000000	0.100000	0.100000	3.200000	0.039424	
ZONE T = "time 0.0006"
I = 100, J = 1, K = 1, F = POINT

0.000000	1.000000	0.750000	1.281250	1.000000	4.000000	0.282095	
0.010101	1.000000	0.750000	1.281250	1.000000	4.000000	0.282095	
0.020202	1.000000	0.750000	1.281250	1.000000	4.000000	0.282095	
0.030303	1.000000	0.750000	1.281250	1.000000	4.000000	0.282095	
0.040404	1.000000	0.750000	1.281250	1.000000	4.000000	0.282095	
0.050505	1.000000	0.750000	1.281250	1.000000	4.000000	0.282095	
0.060606	1.000000	0.750000	1.281250	1.000000	4.000000	0.282095	
0.070707	1.000000	0.750000	1.281250	1.000000	4.000000	0.282095	
0.080808	1.000000	0.750000	1.281250	1.000000	4.000000	0.282095	
0.090909	1.000000	0.750000	1.281250	1.000000	4.000000	0.282095	
0.101010	1.000000	0.750000	1.281250	1.000000	4.000000	0.282095	
0.111111	1.000000	0.750000	1.281250	1.000000	4.000000	0.282095	
0.121212	1.000000	0.750000	1.281250	1.000000	4.000000	0.282095	
0.131313	1.000000	0.750000	1.281250	1.000000	4.000000	0.282095	
0.141414	1.000000	0.750000	1.281250	1.000000	4.000000	0.282095	
0.151515	1.000000	0.750000	1.281250	1.000000	4.000000	0.282095	
0.161616	1.000000	0.750000	1.281250	1.000000	4.000000	0.282095	
0.171717	1.000000	0.750000	1.281250	1.000000	4.000000	0.282095	
0.181818	1.000000	0.750000	1.281250	1.000000	4.000000	0.282095	
0.191919	1.000000	0.750000	1.281250	1.000000	4.000000	0.282095	
0.202020	1.000000	0.750000	1.281250	1.000000	4.000000	0.282095	
0.212121	1.000000	0.750000	1.281250	1.000000	4.000000	0.282095	
0.222222	1.000000	0.750000	1.281250	1.000000	4.000000	0.282095	
0.232323	1.000000	0.750000	1.281250	1.000000	4.000000	0.282095	
0.242424	1.000000	0.750000	1.281250	1.000000	4.000000	0.282095	
0.252525	1.000000	0.750000	1.281250	1.000000	4.000000	0.282095	
0.262626	1.000000	0.750000	1.281250	1.000000	4.000000	0.282095	
0.272727	1.000000	0.750000	1.281250	1.000000	4.000000	0.282095	
0.282828	1.000000	0.750000	1.281250	1.000000	4.000000	0.282095	
0.292929	1.000000	0.750000	1.281250	1.000000	4.000000	0.282095	
0.303030	1.000000	0.750000	1.281250	1.000000	4.000000	0.282095	
0.313131	1.000000	0.750000	1.281250	1.000000	4.000000	0.282095	
0.323232	1.000000	0.750000	1.281250	1.000000	4.000000	0.282095	
0.333333	1.000000	0.750000	1.281250	1.000000	4.000000	0.282095	
0.343434	1.000000	0.750000	1.281250	1.000000	4.000000	0.282095	
0.353535	1.000000	0.750000	1.281250	1.000000	4.000000	0.282095	
0.363636	1.000000	0.750000	1.281250	1.000000	4.000000	0.282095	
0.373737	1.000000	0.750000	1.281250	1.000000	4.000000	0.282095	
0.383838	1.000000	0.750000	1.281250	1.000000	4.000000	0.282095	
0.393939	1.000000	0.750000	1.281250	1.000000	4.000000	0.282095	
0.404040	1.000000	0.750000	1.281250	1.000000	4.000000	0.282095	
0.414141	1.000000	0.750000	1.281250	1.000000	4.000000	0.282095	
0.424242	1.000000	0.750000	1.281250	1.000000	4.000000	0.282095	
0.434343	1.000000	0.750000	1.281250	1.000000	4.000000	0.282095	
0.444444	1.000000	0.750000	1.281250	1.000000	4.000000	0.282095	
0.454545	1.000000	0.750000	1.281250	1.000000	4.000000	0.282095	
0.464646	1.000000	0.750000	1.281250	1.000000	4.000000	0.282095	
0.474747	1.000000	0.750000	1.281250	1.000000	3.999999	0.282095	
0.484848	0.999957	0.750136	1.281108	0.999767	3.999241	0.282109	
0.494949	0.987276	0.778055	1.265241	0.966408	3.915450	0.281496	
0.505051	0.184648	0.701418	0.269364	0.223942	4.851202	0.047298	
0.515152	0.125435	0.010147	0.102045	0.102039	3.253905	0.039232	
0.525253	0.125000	0.000008	0.100002	0.100002	3.200047	0.039424	
0.535354	0.125000	0.000000	0.100000	0.100000	3.200000	0.039424	
0.545455	0.125000	0.000000	0.100000	0.100000	3.200000	0.039424	
0.555556	0.125000	-0.000000	0.100000	0.100000	3.200000	0.039424	
0.565657	0.125000	-0.000000	0.100000	0.100000	3.200000	0.039424	
0.575758	0.125000	-0.000000	0.100000	0.100000	3.200000	0.039424	
0.585859	0.125000	-0.000000	0.100000	0.100000	3.200000	0.039424	
0.595960	0.125000	-0.000000	0.100000	0.100000	3.200000	0.039424	
0.606061	0.125000	-0.000000	0.100000	0.100000	3.200000	0.039424	
0.616162	0.125000	-0.000000	0.100000	0.100000	3.200000	0.039424	
0.626263	0.125000	-0.000000	0.100000	0.100000	3.200000	0.039424	
0.636364	0.125000	-0.000000	0.100000	0.100000	3.200000	0.039424	
0.646465	0.125000	-0.000000	0.100000	0.100000	3.200000	0.039424	
0.656566	0.125000	-0.000000	0.100000	0.100000	3.200000	0.039424	
0.666667	0.125000	-0.000000	0.100000	0.100000	3.200000	0.039424	
0.676768	0.125000	-0.000000	0.100000	0.100000	3.200000	0.039424	
0.686869	0.125000	-0.000000	0.100000	0.100000	3.200000	0.039424	
0.696970	0.125000	-0.000000	0.100000	0.100000	3.200000	0.039424	
0.707071	0.125000	-0.000000	0.100000	0.100000	3.200000	0.039424	
0.717172	0.125000	-0.000000	0.100000	0.100000	3.200000	0.039424	
0.727273	0.125000	-0.000000	0.100000	0.100000	3.200000	0.039424	
0.737374	0.125000	-0.000000	0.100000	0.100000	3.200000	0.039424	
0.747475	0.125000	-0.000000	0.100000	0.100000	3.200000	0.039424	
0.757576	0.125000	-0.000000	0.100000	0.100000	3.200000	0.039424	
0.767677	0.125000	-0.000000	0.100000	0.100000	3.200000	0.039424	
0.777778	0.125000	-0.000000	0.100000	0.100000	3.200000	0.039424	
0.787879	0.125000	-0.000000	0.100000	0.100000	3.200000	0.039424	
0.797980	0.125000	-0.000000	0.100000	0.100000	3.200000	0.039424	
0.808081	0.125000	-0.000000	0.100000	0.100000	3.200000	0.039424	
0.818182	0.125000	-0.000000	0.100000	0.100000	3.200000	0.039424	
0.828283	0.125000	-0.000000	0.100000	0.100000	3.200000	0.039424	
0.838384	0.125000	-0.000000	0.100000	0.100000	3.200000	0.039424	
0.848485	0.125000	-0.000000	0.100000	0.100000	3.200000	0.039424	
0.858586	0.125000	-0.000000	0.100000	0.100000	3.200000	0.039424	
0.868687	0.125000	-0.000000	0.100000	0.100000	3.200000	0.039424	
0.878788	0.125000	-0.000000	0.100000	0.100000	3.200000	0.039424	
0.888889	0.125000	-0.000000	0.100000	0.100000	3.200000	0.039424	
0.898990	0.125000	-0.000000	0.100000	0.100000	3.200000	0.039424	
0.909091	0.125000	-0.000000	0.100000	0.100000	3.200000	0.039424	
0.919192	0.125000	-0.000000	0.100000	0.100000	3.200000	0.039424	
0.929293	0.125000	-0.000000	0.100000	0.100000	3.200000	0.039424	
0.939394	0.125000	-0.000000	0.100000	0.100000	3.200000	0.039424	
0.949495	0.125000	-0.000000	0.100000	0.100000	3.200000	0.039424	
0.959596	0.125000	-0.000000	0.100000	0.100000	3.200000	0.039424	
0.969697	0.125000	-0.000000	0.100000	0.100000	3.200000	0.039424	
0.979798	0.125000	-0.000000	0.100000	0.100000	3.200000	0.039424	
0.989899	0.125000	-0.000000	0.100000	0.100000	3.200000	0.039424	
1.000000	0.125000	-0.000000	0.100000	0.100000	3.200000	0.039424	
ZONE T = "time 0.0008"
I = 100, J = 1, K = 1, F = POINT

0.000000	1.000000	0.750000	1.281250	1.000000	4.000000	0.282095	
0.010101	1.000000	0.750000	1.281250	1.000000	4.000000	0.282095	
0.020202	1.000000	0.750000	1.281250	1.000000	4.000000	0.282095	
0.030303	1.000000	0.750000	1.281250	1.000000	4.000000	0.282095	
0.040404	1.000000	0.750000	1.281250	1.000000	4.000000	0.282095	
0.050505	1.000000	0.750000	1.281250	1.000000	4.000000	0.282095	
0.060606	1.000000	0.750000	1.281250	1.000000	4.000000	0.282095	
0.070707	1.000000	0.750000	1.281250	1.000000	4.000000	0.282095	
0.080808	1.000000	0.750000	1.281250	1.000000	4.000000	0.282095	
0.090909	1.000000	0.750000	1.281250	1.000000	4.000000	0.282095	
0.101010	1.000000	0.750000	1.281250	1.000000	4.000000	0.282095	
0.111111	1.000000	0.750000	1.281250	1.000000	4.000000	0.282095	
0.121212	1.000000	0.750000	1.281250	1.000000	4.000000	0.282095	
0.131313	1.000000	0.750000	1.281250	1.000000	4.000000	0.282095	
0.141414	1.000000	0.750000	1.281250	1.000000	4.000000	0.282095	
0.151515	1.000000	0.750000	1.281250	1.000000	4.000000	0.282095	
0.161616	1.000000	0.750000	1.281250	1.000000	4.000000	0.282095	
0.171717	1.000000	0.750000	1.281250	1.000000	4.000000	0.282095	
0.181818	1.000000	0.750000	1.281250	1.000000	4.000000	0.282095	
0.191919	1.000000	0.750000	1.281250	1.000000	4.000000	0.282095	
0.202020	1.000000	0.750000	1.281250	1.000000	4.000000	0.282095	
0.212121	1.000000	0.750000	1.281250	1.000000	4.000000	0.282095	
0.222222	1.000000	0.750000	1.281250	1.000000	4.000000	0.282095	
0.232323	1.000000	0.750000	1.281250	1.000000	4.000000	0.282095	
0.242424	1.000000	0.750000	1.281250	1.000000	4.000000	0.282095	
0.252525	1.000000	0.750000	1.281250	1.000000	4.000000	0.282095	
0.262626	1.000000	0.750000	1.281250	1.000000	4.000000	0.282095	
0.272727	1.000000	0.750000	1.281250	1.000000	4.000000	0.282095	
0.282828	1.000000	0.750000	1.281250	1.000000	4.000000	0.282095	
0.292929	1.000000	0.750000	1.281250	1.000000	4.000000	0.282095	
0.303030	1.000000	0.750000	1.281250	1.000000	4.000000	0.282095	
0.313131	1.000000	0.750000	1.281250	1.000000	4.000000	0.282095	
0.323232	1.000000	0.750000	1.281250	1.000000	4.000000	0.282095	
0.333333	1.000000	0.750000	1.281250	1.000000	4.000000	0.282095	
0.343434	1.000000	0.750000	1.281250	1.000000	4.000000	0.282095	
0.353535	1.000000	0.750000	1.281250	1.000000	4.000000	0.282095	
0.363636	1.000000	0.750000	1.281250	1.000000	4.000000	0.282095	
0.373737	1.000000	0.750000	1.281250	1.000000	4.000000	0.282095	
0.383838	1.000000	0.750000	1.281250	1.000000	4.000000	0.282095	
0.393939	1.000000	0.750000	1.281250	1.000000	4.000000	0.282095	
0.404040	1.000000	0.750000	1.281250	1.000000	4.000000	0.282095	
0.414141	1.000000	0.750000	1.281250	1.000000	4.000000	0.282095	
0.424242	1.000000	0.750000	1.281250	1.000000	4.000000	0.282095	
0.434343	1.000000	0.750000	1.281250	1.000000	4.000000	0.282095	
0.444444	1.000000	0.750000	1.281250	1.000000	4.000000	0.282095	
0.454545	1.000000	0.750000	1.281250	1.000000	4.000000	0.282095	
0.464646	1.000000	0.750000	1.281250	1.000000	4.000000	0.282095	
0.474747	1.000000	0.750000	1.281250	0.999999	3.999998	0.282095	
0.484848	0.999901	0.750317	1.280927	0.999467	3.998265	0.282128	
0.494949	0.983045	0.787575	1.260351	0.955472	3.887806	0.281285	
0.505051	0.204098	0.838323	0.323003	0.251285	4.924783	0.051888	
0.515152	0.126045	0.025097	0.105225	0.105185	3.338026	0.038923	
0.525253	0.125001	0.000035	0.100007	0.100007	3.200205	0.039423	
0.535354	0.125000	0.000000	0.100000	0.100000	3.200000	0.039424	
0.545455	0.125000	0.000000	0.100000	0.100000	3.200000	0.039424	
0.555556	0.125000	0.000000	0.100000	0.100000	3.200000	0.039424	
0.565657	0.125000	-0.000000	0.100000	0.100000	3.200000	0.039424	
0.575758	0.125000	-0.000000	0.100000	0.100000	3.200000	0.039424	
0.585859	0.125000	-0.000000	0.100000	0.100000	3.200000	0.039424	
0.595960	0.125000	-0.000000	0.100000	0.100000	3.200000	0.039424	