TITLE = "SBBGK1dBEX100-P0RK4w10000IC1"
VARIABLES = "x" "density" "velocity" "energy" "pressure" "temperature" "fugacity"
ZONE T = "time 0.0000"
I = 100, J = 1, K = 1, F = POINT

0.000000	1.260460	0.750000	1.473084	0.000000	4.000000	0.282095	
0.010101	1.260460	0.750000	1.473084	0.000000	4.000000	0.282095	
0.020202	1.260460	0.750000	1.473084	0.000000	4.000000	0.282095	
0.030303	1.260460	0.750000	1.473084	0.000000	4.000000	0.282095	
0.040404	1.260460	0.750000	1.473084	0.000000	4.000000	0.282095	
0.050505	1.260460	0.750000	1.473084	0.000000	4.000000	0.282095	
0.060606	1.260460	0.750000	1.473084	0.000000	4.000000	0.282095	
0.070707	1.260460	0.750000	1.473084	0.000000	4.000000	0.282095	
0.080808	1.260460	0.750000	1.473084	0.000000	4.000000	0.282095	
0.090909	1.260460	0.750000	1.473084	0.000000	4.000000	0.282095	
0.101010	1.260460	0.750000	1.473084	0.000000	4.000000	0.282095	
0.111111	1.260460	0.750000	1.473084	0.000000	4.000000	0.282095	
0.121212	1.260460	0.750000	1.473084	0.000000	4.000000	0.282095	
0.131313	1.260460	0.750000	1.473084	0.000000	4.000000	0.282095	
0.141414	1.260460	0.750000	1.473084	0.000000	4.000000	0.282095	
0.151515	1.260460	0.750000	1.473084	0.000000	4.000000	0.282095	
0.161616	1.260460	0.750000	1.473084	0.000000	4.000000	0.282095	
0.171717	1.260460	0.750000	1.473084	0.000000	4.000000	0.282095	
0.181818	1.260460	0.750000	1.473084	0.000000	4.000000	0.282095	
0.191919	1.260460	0.750000	1.473084	0.000000	4.000000	0.282095	
0.202020	1.260460	0.750000	1.473084	0.000000	4.000000	0.282095	
0.212121	1.260460	0.750000	1.473084	0.000000	4.000000	0.282095	
0.222222	1.260460	0.750000	1.473084	0.000000	4.000000	0.282095	
0.232323	1.260460	0.750000	1.473084	0.000000	4.000000	0.282095	
0.242424	1.260460	0.750000	1.473084	0.000000	4.000000	0.282095	
0.252525	1.260460	0.750000	1.473084	0.000000	4.000000	0.282095	
0.262626	1.260460	0.750000	1.473084	0.000000	4.000000	0.282095	
0.272727	1.260460	0.750000	1.473084	0.000000	4.000000	0.282095	
0.282828	1.260460	0.750000	1.473084	0.000000	4.000000	0.282095	
0.292929	1.260460	0.750000	1.473084	0.000000	4.000000	0.282095	
0.303030	1.260460	0.750000	1.473084	0.000000	4.000000	0.282095	
0.313131	1.260460	0.750000	1.473084	0.000000	4.000000	0.282095	
0.323232	1.260460	0.750000	1.473084	0.000000	4.000000	0.282095	
0.333333	1.260460	0.750000	1.473084	0.000000	4.000000	0.282095	
0.343434	1.260460	0.750000	1.473084	0.000000	4.000000	0.282095	
0.353535	1.260460	0.750000	1.473084	0.000000	4.000000	0.282095	
0.363636	1.260460	0.750000	1.473084	0.000000	4.000000	0.282095	
0.373737	1.260460	0.750000	1.473084	0.000000	4.000000	0.282095	
0.383838	1.260460	0.750000	1.473084	0.000000	4.000000	0.282095	
0.393939	1.260460	0.750000	1.473084	0.000000	4.000000	0.282095	
0.404040	1.260460	0.750000	1.473084	0.000000	4.000000	0.282095	
0.414141	1.260460	0.750000	1.473084	0.000000	4.000000	0.282095	
0.424242	1.260460	0.750000	1.473084	0.000000	4.000000	0.282095	
0.434343	1.260460	0.750000	1.473084	0.000000	4.000000	0.282095	
0.444444	1.260460	0.750000	1.473084	0.000000	4.000000	0.282095	
0.454545	1.260460	0.750000	1.473084	0.000000	4.000000	0.282095	
0.464646	1.260460	0.750000	1.473084	0.000000	4.000000	0.282095	
0.474747	1.260460	0.750000	1.473084	0.000000	4.000000	0.282095	
0.484848	1.260460	0.750000	1.473084	0.000000	4.000000	0.282095	
0.494949	1.260460	0.750000	1.473084	0.000000	4.000000	0.282095	
0.505051	0.128601	0.000000	0.101425	0.000000	3.200000	0.039424	
0.515152	0.128601	0.000000	0.101425	0.000000	3.200000	0.039424	
0.525253	0.128601	0.000000	0.101425	0.000000	3.200000	0.039424	
0.535354	0.128601	0.000000	0.101425	0.000000	3.200000	0.039424	
0.545455	0.128601	0.000000	0.101425	0.000000	3.200000	0.039424	
0.555556	0.128601	0.000000	0.101425	0.000000	3.200000	0.039424	
0.565657	0.128601	0.000000	0.101425	0.000000	3.200000	0.039424	
0.575758	0.128601	0.000000	0.101425	0.000000	3.200000	0.039424	
0.585859	0.128601	0.000000	0.101425	0.000000	3.200000	0.039424	
0.595960	0.128601	0.000000	0.101425	0.000000	3.200000	0.039424	
0.606061	0.128601	0.000000	0.101425	0.000000	3.200000	0.039424	
0.616162	0.128601	0.000000	0.101425	0.000000	3.200000	0.039424	
0.626263	0.128601	0.000000	0.101425	0.000000	3.200000	0.039424	
0.636364	0.128601	0.000000	0.101425	0.000000	3.200000	0.039424	
0.646465	0.128601	0.000000	0.101425	0.000000	3.200000	0.039424	
0.656566	0.128601	0.000000	0.101425	0.000000	3.200000	0.039424	
0.666667	0.128601	0.000000	0.101425	0.000000	3.200000	0.039424	
0.676768	0.128601	0.000000	0.101425	0.000000	3.200000	0.039424	
0.686869	0.128601	0.000000	0.101425	0.000000	3.200000	0.039424	
0.696970	0.128601	0.000000	0.101425	0.000000	3.200000	0.039424	
0.707071	0.128601	0.000000	0.101425	0.000000	3.200000	0.039424	
0.717172	0.128601	0.000000	0.101425	0.000000	3.200000	0.039424	
0.727273	0.128601	0.000000	0.101425	0.000000	3.200000	0.039424	
0.737374	0.128601	0.000000	0.101425	0.000000	3.200000	0.039424	
0.747475	0.128601	0.000000	0.101425	0.000000	3.200000	0.039424	
0.757576	0.128601	0.000000	0.101425	0.000000	3.200000	0.039424	
0.767677	0.128601	0.000000	0.101425	0.000000	3.200000	0.039424	
0.777778	0.128601	0.000000	0.101425	0.000000	3.200000	0.039424	
0.787879	0.128601	0.000000	0.101425	0.000000	3.200000	0.039424	
0.797980	0.128601	0.000000	0.101425	0.000000	3.200000	0.039424	
0.808081	0.128601	0.000000	0.101425	0.000000	3.200000	0.039424	
0.818182	0.128601	0.000000	0.101425	0.000000	3.200000	0.039424	
0.828283	0.128601	0.000000	0.101425	0.000000	3.200000	0.039424	
0.838384	0.128601	0.000000	0.101425	0.000000	3.200000	0.039424	
0.848485	0.128601	0.000000	0.101425	0.000000	3.200000	0.039424	
0.858586	0.128601	0.000000	0.101425	0.000000	3.200000	0.039424	
0.868687	0.128601	0.000000	0.101425	0.000000	3.200000	0.039424	
0.878788	0.128601	0.000000	0.101425	0.000000	3.200000	0.039424	
0.888889	0.128601	0.000000	0.101425	0.000000	3.200000	0.039424	
0.898990	0.128601	0.000000	0.101425	0.000000	3.200000	0.039424	
0.909091	0.128601	0.000000	0.101425	0.000000	3.200000	0.039424	
0.919192	0.128601	0.000000	0.101425	0.000000	3.200000	0.039424	
0.929293	0.128601	0.000000	0.101425	0.000000	3.200000	0.039424	
0.939394	0.128601	0.000000	0.101425	0.000000	3.200000	0.039424	
0.949495	0.128601	0.000000	0.101425	0.000000	3.200000	0.039424	
0.959596	0.128601	0.000000	0.101425	0.000000	3.200000	0.039424	
0.969697	0.128601	0.000000	0.101425	0.000000	3.200000	0.039424	
0.979798	0.128601	0.000000	0.101425	0.000000	3.200000	0.039424	
0.989899	0.128601	0.000000	0.101425	0.000000	3.200000	0.039424	
1.000000	0.128601	0.000000	0.101425	0.000000	3.200000	0.039424	
ZONE T = "time 0.0002"
I = 100, J = 1, K = 1, F = POINT

0.000000	1.260460	0.750000	1.473084	1.118580	4.000001	0.282095	
0.010101	1.260460	0.750000	1.473084	1.118580	4.000001	0.282095	
0.020202	1.260460	0.750000	1.473084	1.118580	4.000001	0.282095	
0.030303	1.260460	0.750000	1.473084	1.118580	4.000001	0.282095	
0.040404	1.260460	0.750000	1.473084	1.118580	4.000001	0.282095	
0.050505	1.260460	0.750000	1.473084	1.118580	4.000001	0.282095	
0.060606	1.260460	0.750000	1.473084	1.118580	4.000001	0.282095	
0.070707	1.260460	0.750000	1.473084	1.118580	4.000001	0.282095	
0.080808	1.260460	0.750000	1.473084	1.118580	4.000001	0.282095	
0.090909	1.260460	0.750000	1.473084	1.118580	4.000001	0.282095	
0.101010	1.260460	0.750000	1.473084	1.118580	4.000001	0.282095	
0.111111	1.260460	0.750000	1.473084	1.118580	4.000001	0.282095	
0.121212	1.260460	0.750000	1.473084	1.118580	4.000001	0.282095	
0.131313	1.260460	0.750000	1.473084	1.118580	4.000001	0.282095	
0.141414	1.260460	0.750000	1.473084	1.118580	4.000001	0.282095	
0.151515	1.260460	0.750000	1.473084	1.118580	4.000001	0.282095	
0.161616	1.260460	0.750000	1.473084	1.118580	4.000001	0.282095	
0.171717	1.260460	0.750000	1.473084	1.118580	4.000001	0.282095	
0.181818	1.260460	0.750000	1.473084	1.118580	4.000001	0.282095	
0.191919	1.260460	0.750000	1.473084	1.118580	4.000001	0.282095	
0.202020	1.260460	0.750000	1.473084	1.118580	4.000001	0.282095	
0.212121	1.260460	0.750000	1.473084	1.118580	4.000001	0.282095	
0.222222	1.260460	0.750000	1.473084	1.118580	4.000001	0.282095	
0.232323	1.260460	0.750000	1.473084	1.118580	4.000001	0.282095	
0.242424	1.260460	0.750000	1.473084	1.118580	4.000001	0.282095	
0.252525	1.260460	0.750000	1.473084	1.118580	4.000001	0.282095	
0.262626	1.260460	0.750000	1.473084	1.118580	4.000001	0.282095	
0.272727	1.260460	0.750000	1.473084	1.118580	4.000001	0.282095	
0.282828	1.260460	0.750000	1.473084	1.118580	4.000001	0.282095	
0.292929	1.260460	0.750000	1.473084	1.118580	4.000001	0.282095	
0.303030	1.260460	0.750000	1.473084	1.118580	4.000001	0.282095	
0.313131	1.260460	0.750000	1.473084	1.118580	4.000001	0.282095	
0.323232	1.260460	0.750000	1.473084	1.118580	4.000001	0.282095	
0.333333	1.260460	0.750000	1.473084	1.118580	4.000001	0.282095	
0.343434	1.260460	0.750000	1.473084	1.118580	4.000001	0.282095	
0.353535	1.260460	0.750000	1.473084	1.118580	4.000001	0.282095	
0.363636	1.260460	0.750000	1.473084	1.118580	4.000001	0.282095	
0.373737	1.260460	0.750000	1.473084	1.118580	4.000001	0.282095	
0.383838	1.260460	0.750000	1.473084	1.118580	4.000001	0.282095	
0.393939	1.260460	0.750000	1.473084	1.118580	4.000001	0.282095	
0.404040	1.260460	0.750000	1.473084	1.118580	4.000001	0.282095	
0.414141	1.260460	0.750000	1.473084	1.118580	4.000001	0.282095	
0.424242	1.260460	0.750000	1.473084	1.118580	4.000001	0.282095	
0.434343	1.260460	0.750000	1.473084	1.118580	4.000001	0.282095	
0.444444	1.260460	0.750000	1.473084	1.118580	4.000001	0.282095	
0.454545	1.260460	0.750000	1.473084	1.118580	4.000001	0.282095	
0.464646	1.260460	0.750000	1.473084	1.118580	4.000001	0.282095	
0.474747	1.260460	0.750000	1.473084	1.118580	4.000001	0.282095	
0.484848	1.260457	0.750006	1.473076	1.118566	3.999963	0.282095	
0.494949	1.254729	0.759706	1.465917	1.103832	3.965207	0.282053	
0.505051	0.157570	0.377893	0.176954	0.165704	4.270535	0.041743	
0.515152	0.128629	0.000608	0.101547	0.101547	3.203152	0.039413	
0.525253	0.128601	0.000000	0.101425	0.101425	3.200003	0.039424	
0.535354	0.128601	0.000000	0.101425	0.101425	3.200003	0.039424	
0.545455	0.128601	0.000000	0.101425	0.101425	3.200003	0.039424	
0.555556	0.128601	0.000000	0.101425	0.101425	3.200003	0.039424	
0.565657	0.128601	0.000000	0.101425	0.101425	3.200003	0.039424	
0.575758	0.128601	0.000000	0.101425	0.101425	3.200003	0.039424	
0.585859	0.128601	0.000000	0.101425	0.101425	3.200003	0.039424	
0.595960	0.128601	0.000000	0.101425	0.101425	3.200003	0.039424	
0.606061	0.128601	0.000000	0.101425	0.101425	3.200003	0.039424	
0.616162	0.128601	0.000000	0.101425	0.101425	3.200003	0.039424	
0.626263	0.128601	0.000000	0.101425	0.101425	3.200003	0.039424	
0.636364	0.128601	0.000000	0.101425	0.101425	3.200003	0.039424	
0.646465	0.128601	0.000000	0.101425	0.101425	3.200003	0.039424	
0.656566	0.128601	0.000000	0.101425	0.101425	3.200003	0.039424	
0.666667	0.128601	0.000000	0.101425	0.101425	3.200003	0.039424	
0.676768	0.128601	0.000000	0.101425	0.101425	3.200003	0.039424	
0.686869	0.128601	0.000000	0.101425	0.101425	3.200003	0.039424	
0.696970	0.128601	0.000000	0.101425	0.101425	3.200003	0.039424	
0.707071	0.128601	0.000000	0.101425	0.101425	3.200003	0.039424	
0.717172	0.128601	0.000000	0.101425	0.101425	3.200003	0.039424	
0.727273	0.128601	0.000000	0.101425	0.101425	3.200003	0.039424	
0.737374	0.128601	0.000000	0.101425	0.101425	3.200003	0.039424	
0.747475	0.128601	0.000000	0.101425	0.101425	3.200003	0.039424	
0.757576	0.128601	0.000000	0.101425	0.101425	3.200003	0.039424	
0.767677	0.128601	0.000000	0.101425	0.101425	3.200003	0.039424	
0.777778	0.128601	0.000000	0.101425	0.101425	3.200003	0.039424	
0.787879	0.128601	0.000000	0.101425	0.101425	3.200003	0.039424	
0.797980	0.128601	0.000000	0.101425	0.101425	3.200003	0.039424	
0.808081	0.128601	0.000000	0.101425	0.101425	3.200003	0.039424	
0.818182	0.128601	0.000000	0.101425	0.101425	3.200003	0.039424	
0.828283	0.128601	0.000000	0.101425	0.101425	3.200003	0.039424	
0.838384	0.128601	0.000000	0.101425	0.101425	3.200003	0.039424	
0.848485	0.128601	0.000000	0.101425	0.101425	3.200003	0.039424	
0.858586	0.128601	0.000000	0.101425	0.101425	3.200003	0.039424	
0.868687	0.128601	0.000000	0.101425	0.101425	3.200003	0.039424	
0.878788	0.128601	0.000000	0.101425	0.101425	3.200003	0.039424	
0.888889	0.128601	0.000000	0.101425	0.101425	3.200003	0.039424	
0.898990	0.128601	0.000000	0.101425	0.101425	3.200003	0.039424	
0.909091	0.128601	0.000000	0.101425	0.101425	3.200003	0.039424	
0.919192	0.128601	0.000000	0.101425	0.101425	3.200003	0.039424	
0.929293	0.128601	0.000000	0.101425	0.101425	3.200003	0.039424	
0.939394	0.128601	0.000000	0.101425	0.101425	3.200003	0.039424	
0.949495	0.128601	0.000000	0.101425	0.101425	3.200003	0.039424	
0.959596	0.128601	0.000000	0.101425	0.101425	3.200003	0.039424	
0.969697	0.128601	0.000000	0.101425	0.101425	3.200003	0.039424	
0.979798	0.128601	0.000000	0.101425	0.101425	3.200003	0.039424	
0.989899	0.128601	0.000000	0.101425	0.101425	3.200003	0.039424	
1.000000	0.128601	0.000000	0.101425	0.101425	3.200003	0.039424	
ZONE T = "time 0.0005"
I = 100, J = 1, K = 1, F = POINT

0.000000	1.260460	0.750000	1.473084	1.118580	4.000001	0.282095	
0.010101	1.260460	0.750000	1.473084	1.118580	4.000001	0.282095	
0.020202	1.260460	0.750000	1.473084	1.118580	4.000001	0.282095	
0.030303	1.260460	0.750000	1.473084	1.118580	4.000001	0.282095	
0.040404	1.260460	0.750000	1.473084	1.118580	4.000001	0.282095	
0.050505	1.260460	0.750000	1.473084	1.118580	4.000001	0.282095	
0.060606	1.260460	0.750000	1.473084	1.118580	4.000001	0.282095	
0.070707	1.260460	0.750000	1.473084	1.118580	4.000001	0.282095	
0.080808	1.260460	0.750000	1.473084	1.118580	4.000001	0.282095	
0.090909	1.260460	0.750000	1.473084	1.118580	4.000001	0.282095	
0.101010	1.260460	0.750000	1.473084	1.118580	4.000001	0.282095	
0.111111	1.260460	0.750000	1.473084	1.118580	4.000001	0.282095	
0.121212	1.260460	0.750000	1.473084	1.118580	4.000001	0.282095	
0.131313	1.260460	0.750000	1.473084	1.118580	4.000001	0.282095	
0.141414	1.260460	0.750000	1.473084	1.118580	4.000001	0.282095	
0.151515	1.260460	0.750000	1.473084	1.118580	4.000001	0.282095	
0.161616	1.260460	0.750000	1.473084	1.118580	4.000001	0.282095	
0.171717	1.260460	0.750000	1.473084	1.118580	4.000001	0.282095	
0.181818	1.260460	0.750000	1.473084	1.118580	4.000001	0.282095	
0.191919	1.260460	0.750000	1.473084	1.118580	4.000001	0.282095	
0.202020	1.260460	0.750000	1.473084	1.118580	4.000001	0.282095	
0.212121	1.260460	0.750000	1.473084	1.118580	4.000001	0.282095	
0.222222	1.260460	0.750000	1.473084	1.118580	4.000001	0.282095	
0.232323	1.260460	0.750000	1.473084	1.118580	4.000001	0.282095	
0.242424	1.260460	0.750000	1.473084	1.118580	4.000001	0.282095	
0.252525	1.260460	0.750000	1.473084	1.118580	4.000001	0.282095	
0.262626	1.260460	0.750000	1.473084	1.118580	4.000001	0.282095	
0.272727	1.260460	0.750000	1.473084	1.118580	4.000001	0.282095	
0.282828	1.260460	0.750000	1.473084	1.118580	4.000001	0.282095	
0.292929	1.260460	0.750000	1.473084	1.118580	4.000001	0.282095	
0.303030	1.260460	0.750000	1.473084	1.118580	4.000001	0.282095	
0.313131	1.260460	0.750000	1.473084	1.118580	4.000001	0.282095	
0.323232	1.260460	0.750000	1.473084	1.118580	4.000001	0.282095	
0.333333	1.260460	0.750000	1.473084	1.118580	4.000001	0.282095	
0.343434	1.260460	0.750000	1.473084	1.118580	4.000001	0.282095	
0.353535	1.260460	0.750000	1.473084	1.118580	4.000001	0.282095	
0.363636	1.260460	0.750000	1.473084	1.118580	4.000001	0.282095	
0.373737	1.260460	0.750000	1.473084	1.118580	4.000001	0.282095	
0.383838	1.260460	0.750000	1.473084	1.118580	4.000001	0.282095	
0.393939	1.260460	0.750000	1.473084	1.118580	4.000001	0.282095	
0.404040	1.260460	0.750000	1.473084	1.118580	4.000001	0.282095	
0.414141	1.260460	0.750000	1.473084	1.118580	4.000001	0.282095	
0.424242	1.260460	0.750000	1.473084	1.118580	4.000001	0.282095	
0.434343	1.260460	0.750000	1.473084	1.118580	4.000001	0.282095	
0.444444	1.260460	0.750000	1.473084	1.118580	4.000001	0.282095	
0.454545	1.260460	0.750000	1.473084	1.118580	4.000001	0.282095	
0.464646	1.260460	0.750000	1.473084	1.118580	4.000001	0.282095	
0.474747	1.260460	0.750000	1.473084	1.118580	4.000001	0.282095	
0.484848	1.260439	0.750051	1.473020	1.118473	3.999695	0.282100	
0.494949	1.249046	0.769384	1.459499	1.089811	3.932476	0.281965	
0.505051	0.186330	0.636814	0.250989	0.213208	4.655952	0.047089	
0.515152	0.128833	0.005120	0.102464	0.102462	3.226808	0.039333	
0.525253	0.128601	0.000003	0.101425	0.101425	3.200018	0.039424	
0.535354	0.128601	0.000000	0.101425	0.101425	3.200003	0.039424	
0.545455	0.128601	0.000000	0.101425	0.101425	3.200003	0.039424	
0.555556	0.128601	0.000000	0.101425	0.101425	3.200003	0.039424	
0.565657	0.128601	0.000000	0.101425	0.101425	3.200003	0.039424	
0.575758	0.128601	0.000000	0.101425	0.101425	3.200003	0.039424	
0.585859	0.128601	0.000000	0.101425	0.101425	3.200003	0.039424	
0.595960	0.128601	0.000000	0.101425	0.101425	3.200003	0.039424	
0.606061	0.128601	0.000000	0.101425	0.101425	3.200003	0.039424	
0.616162	0.128601	0.000000	0.101425	0.101425	3.200003	0.039424	
0.626263	0.128601	0.000000	0.101425	0.101425	3.200003	0.039424	
0.636364	0.128601	0.000000	0.101425	0.101425	3.200003	0.039424	
0.646465	0.128601	0.000000	0.101425	0.101425	3.200003	0.039424	
0.656566	0.128601	0.000000	0.101425	0.101425	3.200003	0.039424	
0.666667	0.128601	0.000000	0.101425	0.101425	3.200003	0.039424	
0.676768	0.128601	0.000000	0.101425	0.101425	3.200003	0.039424	
0.686869	0.128601	0.000000	0.101425	0.101425	3.200003	0.039424	
0.696970	0.128601	0.000000	0.101425	0.101425	3.200003	0.039424	
0.707071	0.128601	0.000000	0.101425	0.101425	3.200003	0.039424	
0.717172	0.128601	0.000000	0.101425	0.101425	3.200003	0.039424	
0.727273	0.128601	0.000000	0.101425	0.101425	3.200003	0.039424	
0.737374	0.128601	0.000000	0.101425	0.101425	3.200003	0.039424	
0.747475	0.128601	0.000000	0.101425	0.101425	3.200003	0.039424	
0.757576	0.128601	0.000000	0.101425	0.101425	3.200003	0.039424	
0.767677	0.128601	0.000000	0.101425	0.101425	3.200003	0.039424	
0.777778	0.128601	0.000000	0.101425	0.101425	3.200003	0.039424	
0.787879	0.128601	0.000000	0.101425	0.101425	3.200003	0.039424	
0.797980	0.128601	0.000000	0.101425	0.101425	3.200003	0.039424	
0.808081	0.128601	0.000000	0.101425	0.101425	3.200003	0.039424	
0.818182	0.128601	0.000000	0.101425	0.101425	3.200003	0.039424	
0.828283	0.128601	0.000000	0.101425	0.101425	3.200003	0.039424	
0.838384	0.128601	0.000000	0.101425	0.101425	3.200003	0.039424	
0.848485	0.128601	0.000000	0.101425	0.101425	3.200003	0.039424	
0.858586	0.128601	0.000000	0.101425	0.101425	3.200003	0.039424	
0.868687	0.128601	0.000000	0.101425	0.101425	3.200003	0.039424	
0.878788	0.128601	0.000000	0.101425	0.101425	3.200003	0.039424	
0.888889	0.128601	0.000000	0.101425	0.101425	3.200003	0.039424	
0.898990	0.128601	0.000000	0.101425	0.101425	3.200003	0.039424	
0.909091	0.128601	0.000000	0.101425	0.101425	3.200003	0.039424	
0.919192	0.128601	0.000000	0.101425	0.101425	3.200003	0.039424	
0.929293	0.128601	0.000000	0.101425	0.101425	3.200003	0.039424	
0.939394	0.128601	0.000000	0.101425	0.101425	3.200003	0.039424	
0.949495	0.128601	0.000000	0.101425	0.101425	3.200003	0.039424	
0.959596	0.128601	0.000000	0.101425	0.101425	3.200003	0.039424	
0.969697	0.128601	0.000000	0.101425	0.101425	3.200003	0.039424	
0.979798	0.128601	0.000000	0.101425	0.101425	3.200003	0.039424	
0.989899	0.128601	0.000000	0.101425	0.101425	3.200003	0.039424	
1.000000	0.128601	0.000000	0.101425	0.101425	3.200003	0.039424	
ZONE T = "time 0.0007"
I = 100, J = 1, K = 1, F = POINT

0.000000	1.260460	0.750000	1.473084	1.118580	4.000001	0.282095	
0.010101	1.260460	0.750000	1.473084	1.118580	4.000001	0.282095	
0.020202	1.260460	0.750000	1.473084	1.118580	4.000001	0.282095	
0.030303	1.260460	0.750000	1.473084	1.118580	4.000001	0.282095	
0.040404	1.260460	0.750000	1.473084	1.118580	4.000001	0.282095	
0.050505	1.260460	0.750000	1.473084	1.118580	4.000001	0.282095	
0.060606	1.260460	0.750000	1.473084	1.118580	4.000001	0.282095	
0.070707	1.260460	0.750000	1.473084	1.118580	4.000001	0.282095	
0.080808	1.260460	0.750000	1.473084	1.118580	4.000001	0.282095	
0.090909	1.260460	0.750000	1.473084	1.118580	4.000001	0.282095	
0.101010	1.260460	0.750000	1.473084	1.118580	4.000001	0.282095	
0.111111	1.260460	0.750000	1.473084	1.118580	4.000001	0.282095	
0.121212	1.260460	0.750000	1.473084	1.118580	4.000001	0.282095	
0.131313	1.260460	0.750000	1.473084	1.118580	4.000001	0.282095	
0.141414	1.260460	0.750000	1.473084	1.118580	4.000001	0.282095	
0.151515	1.260460	0.750000	1.473084	1.118580	4.000001	0.282095	
0.161616	1.260460	0.750000	1.473084	1.118580	4.000001	0.282095	
0.171717	1.260460	0.750000	1.473084	1.118580	4.000001	0.282095	
0.181818	1.260460	0.750000	1.473084	1.118580	4.000001	0.282095	
0.191919	1.260460	0.750000	1.473084	1.118580	4.000001	0.282095	
0.202020	1.260460	0.750000	1.473084	1.118580	4.000001	0.282095	
0.212121	1.260460	0.750000	1.473084	1.118580	4.000001	0.282095	
0.222222	1.260460	0.750000	1.473084	1.118580	4.000001	0.282095	
0.232323	1.260460	0.750000	1.473084	1.118580	4.000001	0.282095	
0.242424	1.260460	0.750000	1.473084	1.118580	4.000001	0.282095	
0.252525	1.260460	0.750000	1.473084	1.118580	4.000001	0.282095	
0.262626	1.260460	0.750000	1.473084	1.118580	4.000001	0.282095	
0.272727	1.260460	0.750000	1.473084	1.118580	4.000001	0.282095	
0.282828	1.260460	0.750000	1.473084	1.118580	4.000001	0.282095	
0.292929	1.260460	0.750000	1.473084	1.118580	4.000001	0.282095	
0.303030	1.260460	0.750000	1.473084	1.118580	4.000001	0.282095	
0.313131	1.260460	0.750000	1.473084	1.118580	4.000001	0.282095	
0.323232	1.260460	0.750000	1.473084	1.118580	4.000001	0.282095	
0.333333	1.260460	0.750000	1.473084	1.118580	4.000001	0.282095	
0.343434	1.260460	0.750000	1.473084	1.118580	4.000001	0.282095	
0.353535	1.260460	0.750000	1.473084	1.118580	4.000001	0.282095	
0.363636	1.260460	0.750000	1.473084	1.118580	4.000001	0.282095	
0.373737	1.260460	0.750000	1.473084	1.118580	4.000001	0.282095	
0.383838	1.260460	0.750000	1.473084	1.118580	4.000001	0.282095	
0.393939	1.260460	0.750000	1.473084	1.118580	4.000001	0.282095	
0.404040	1.260460	0.750000	1.473084	1.118580	4.000001	0.282095	
0.414141	1.260460	0.750000	1.473084	1.118580	4.000001	0.282095	
0.424242	1.260460	0.750000	1.473084	1.118580	4.000001	0.282095	
0.434343	1.260460	0.750000	1.473084	1.118580	4.000001	0.282095	
0.444444	1.260460	0.750000	1.473084	1.118580	4.000001	0.282095	
0.454545	1.260460	0.750000	1.473084	1.118580	4.000001	0.282095	
0.464646	1.260460	0.750000	1.473084	1.118580	4.000001	0.282095	
0.474747	1.260460	0.750000	1.473084	1.118580	4.000001	0.282095	
0.484848	1.260392	0.750166	1.472877	1.118234	3.999010	0.282110	
0.494949	1.243351	0.779268	1.453330	1.075812	3.899580	0.281883	
0.505051	0.214766	0.821525	0.322959	0.250486	4.757044	0.053443	
0.515152	0.129402	0.018319	0.105281	0.105259	3.300008	0.039074	
0.525253	0.128601	0.000020	0.101429	0.101429	3.200127	0.039423	
0.535354	0.128601	0.000000	0.101425	0.101425	3.200003	0.039424	
0.545455	0.128601	0.000000	0.101425	0.101425	3.200003	0.039424	
0.555556	0.128601	0.000000	0.101425	0.101425	3.200003	0.039424	
0.565657	0.128601	0.000000	0.101425	0.101425	3.200003	0.039424	
0.575758	0.128601	0.000000	0.101425	0.101425	3.200003	0.039424	
0.585859	0.128601	0.000000	0.101425	0.101425	3.200003	0.039424	
0.595960	0.128601	0.000000	0.101425	0.101425	3.200003	0.039424	
0.606061	0.128601	0.000000	0.101425	0.101425	3.200003	0.039424	
0.616162	0.128601	0.000000	0.101425	0.101425	3.200003	0.039424	
0.626263	0.128601	0.000000	0.101425	0.101425	3.200003	0.039424	
0.636364	0.128601	0.000000	0.101425	0.101425	3.200003	0.039424	
0.646465	0.128601	0.000000	0.101425	0.101425	3.200003	0.039424	
0.656566	0.128601	0.000000	0.101425	0.101425	3.200003	0.039424	
0.666667	0.128601	0.000000	0.101425	0.101425	3.200003	0.039424	
0.676768	0.128601	0.000000	0.101425	0.101425	3.200003	0.039424	
0.686869	0.128601	0.000000	0.101425	0.101425	3.200003	0.039424	
0.696970	0.128601	0.000000	0.101425	0.101425	3.200003	0.039424	
0.707071	0.128601	0.000000	0.101425	0.101425	3.200003	0.039424	
0.717172	0.128601	0.000000	0.101425	0.101425	3.200003	0.039424	
0.727273	0.128601	0.000000	0.101425	0.101425	3.200003	0.039424	
0.737374	0.128601	0.000000	0.101425	0.101425	3.200003	0.039424	
0.747475	0.128601	0.000000	0.101425	0.101425	3.200003	0.039424	
0.757576	0.128601	0.000000	0.101425	0.101425	3.200003	0.039424	
0.767677	0.128601	0.000000	0.101425	0.101425	3.200003	0.039424	
0.777778	0.128601	0.000000	0.101425	0.101425	3.200003	0.039424	
0.787879	0.128601	0.000000	0.101425	0.101425	3.200003	0.039424	
0.797980	0.128601	0.000000	0.101425	0.101425	3.200003	0.039424	
0.808081	0.128601	0.000000	0.101425	0.101425	3.200003	0.039424	
0.818182	0.128601	0.000000	0.101425	0.101425	3.200003	0.039424	
0.828283	0.128601	0.000000	0.101425	0.101425	3.200003	0.039424	
0.838384	0.128601	0.000000	0.101425	0.101425	3.200003	0.039424	
0.848485	0.128601	0.000000	0.101425	0.101425	3.200003	0.039424	
0.858586	0.128601	0.000000	0.101425	0.101425	3.200003	0.039424	
0.868687	0.128601	0.000000	0.101425	0.101425	3.200003	0.039424	
0.878788	0.128601	0.000000	0.101425	0.101425	3.200003	0.039424	
0.888889	0.128601	0.000000	0.101425	0.101425	3.200003	0.039424	
0.898990	0.128601	0.000000	0.101425	0.101425	3.200003	0.039424	
0.909091	0.128601	0.000000	0.101425	0.101425	3.200003	0.039424	
0.919192	0.128601	0.000000	0.101425	0.101425	3.200003	0.039424	
0.929293	0.128601	0.000000	0.101425	0.101425	3.200003	0.039424	
0.939394	0.128601	0.000000	0.101425	0.101425	3.200003	0.039424	
0.949495	0.128601	0.000000	0.101425	0.101425	3.200003	0.039424	
0.959596	0.128601	0.000000	0.101425	0.101425	3.200003	0.039424	
0.969697	0.128601	0.000000	0.101425	0.101425	3.200003	0.039424	
0.979798	0.128601	0.000000	0.101425	0.101425	3.200003	0.039424	
0.989899	0.128601	0.000000	0.101425	0.101425	3.200003	0.039424	
1.000000	0.128601	0.000000	0.101425	0.101425	3.200003	0.039424	
ZONE T = "time 0.0010"
I = 100, J = 1, K = 1, F = POINT

0.000000	1.260460	0.750000	1.473084	1.118580	4.000001	0.282095	
0.010101	1.260460	0.750000	1.473084	1.118580	4.000001	0.282095	
0.020202	1.260460	0.750000	1.473084	1.118580	4.000001	0.282095	
0.030303	1.260460	0.750000	1.473084	1.118580	4.000001	0.282095	
0.040404	1.260460	0.750000	1.473084	1.118580	4.000001	0.282095	
0.050505	1.260460	0.750000	1.473084	1.118580	4.000001	0.282095	
0.060606	1.260460	0.750000	1.473084	1.118580	4.000001	0.282095	
0.070707	1.260460	0.750000	1.473084	1.118580	4.000001	0.282095	
0.080808	1.260460	0.750000	1.473084	1.118580	4.000001	0.282095	
0.090909	1.260460	0.750000	1.473084	1.118580	4.000001	0.282095	
0.101010	1.260460	0.750000	1.473084	1.118580	4.000001	0.282095	
0.111111	1.260460	0.750000	1.473084	1.118580	4.000001	0.282095	
0.121212	1.260460	0.750000	1.473084	1.118580	4.000001	0.282095	
0.131313	1.260460	0.750000	1.473084	1.118580	4.000001	0.282095	
0.141414	1.260460	0.750000	1.473084	1.118580	4.000001	0.282095	
0.151515	1.260460	0.750000	1.473084	1.118580	4.000001	0.282095	
0.161616	1.260460	0.750000	1.473084	1.118580	4.000001	0.282095	
0.171717	1.260460	0.750000	1.473084	1.118580	4.000001	0.282095	
0.181818	1.260460	0.750000	1.473084	1.118580	4.000001	0.282095	
0.191919	1.260460	0.750000	1.473084	1.118580	4.000001	0.282095	
0.202020	1.260460	0.750000	1.473084	1.118580	4.000001	0.282095	
0.212121	1.260460	0.750000	1.473084	1.118580	4.000001	0.282095	
0.222222	1.260460	0.750000	1.473084	1.118580	4.000001	0.282095	
0.232323	1.260460	0.750000	1.473084	1.118580	4.000001	0.282095	
0.242424	1.260460	0.750000	1.473084	1.118580	4.000001	0.282095	
0.252525	1.260460	0.750000	1.473084	1.118580	4.000001	0.282095	
0.262626	1.260460	0.750000	1.473084	1.118580	4.000001	0.282095	
0.272727	1.260460	0.750000	1.473084	1.118580	4.000001	0.282095	
0.282828	1.260460	0.750000	1.473084	1.118580	4.000001	0.282095	
0.292929	1.260460	0.750000	1.473084	1.118580	4.000001	0.282095	
0.303030	1.260460	0.750000	1.473084	1.118580	4.000001	0.282095	
0.313131	1.260460	0.750000	1.473084	1.118580	4.000001	0.282095	
0.323232	1.260460	0.750000	1.473084	1.118580	4.000001	0.282095	
0.333333	1.260460	0.750000	1.473084	1.118580	4.000001	0.282095	
0.343434	1.260460	0.750000	1.473084	1.118580	4.000001	0.282095	
0.353535	1.260460	0.750000	1.473084	1.118580	4.000001	0.282095	
0.363636	1.260460	0.750000	1.473084	1.118580	4.000001	0.282095	
0.373737	1.260460	0.750000	1.473084	1.118580	4.000001	0.282095	
0.383838	1.260460	0.750000	1.473084	1.118580	4.000001	0.282095	
0.393939	1.260460	0.750000	1.473084	1.118580	4.000001	0.282095	
0.404040	1.260460	0.750000	1.473084	1.118580	4.000001	0.282095	
0.414141	1.260460	0.750000	1.473084	1.118580	4.000001	0.282095	
0.424242	1.260460	0.750000	1.473084	1.118580	4.000001	0.282095	
0.434343	1.260460	0.750000	1.473084	1.118580	4.000001	0.282095	
0.444444	1.260460	0.750000	1.473084	1.118580	4.000001	0.282095	
0.454545	1.260460	0.750000	1.473084	1.118580	4.000001	0.282095	
0.464646	1.260460	0.750000	1.473084	1.118580	4.000001	0.282095	
0.474747	1.260460	0.750000	1.473084	1.118579	4.000000	0.282095	
0.484848	1.260304	0.750382	1.472624	1.117803	3.997785	0.282129	
0.494949	1.237641	0.789382	1.447224	1.061623	3.865787	0.281827	
0.505051	0.242702	0.956584	0.391852	0.280809	4.731227	0.060252	
0.515152	0.130524	0.044946	0.111209	0.111078	3.451804	0.038551	
0.525253	0.128604	0.000096	0.101445	0.101445	3.200558	0.039422	
0.535354	0.128601	0.000000	0.101425	0.101425	3.200003	0.039424	
0.545455	0.128601	0.000000	0.101425	0.101425	3.200003	0.039424	
0.555556	0.128601	0.000000	0.101425	0.101425	3.200003	0.039424	
0.565657	0.128601	0.000000	0.101425	0.101425	3.200003	0.039424	
0.575758	0.128601	0.000000	0.101425	0.101425	3.200003	0.039424	
0.585859	0.128601	0.000000	0.101425	0.101425	3.200003	0.039424	
0.595960	0.128601	0.000000	0.101425	0.101425	3.200003	0.039424	
0.606061	0.128601	0.000000	0.101425	0.101425	3.200003	0.039424	
0.616162	0.128601	0.000000	0.101425	0.101425	3.200003	0.039424	