TITLE = "SBBGK1dMBX100-P0RK4w1000IC1"
VARIABLES = "x" "density" "velocity" "energy" "pressure" "temperature" "fugacity"
ZONE T = "time 0.0000"
I = 100, J = 1, K = 1, F = POINT

0.000000	1.000000	0.750000	1.281250	0.000000	4.000000	0.282095	
0.010101	1.000000	0.750000	1.281250	0.000000	4.000000	0.282095	
0.020202	1.000000	0.750000	1.281250	0.000000	4.000000	0.282095	
0.030303	1.000000	0.750000	1.281250	0.000000	4.000000	0.282095	
0.040404	1.000000	0.750000	1.281250	0.000000	4.000000	0.282095	
0.050505	1.000000	0.750000	1.281250	0.000000	4.000000	0.282095	
0.060606	1.000000	0.750000	1.281250	0.000000	4.000000	0.282095	
0.070707	1.000000	0.750000	1.281250	0.000000	4.000000	0.282095	
0.080808	1.000000	0.750000	1.281250	0.000000	4.000000	0.282095	
0.090909	1.000000	0.750000	1.281250	0.000000	4.000000	0.282095	
0.101010	1.000000	0.750000	1.281250	0.000000	4.000000	0.282095	
0.111111	1.000000	0.750000	1.281250	0.000000	4.000000	0.282095	
0.121212	1.000000	0.750000	1.281250	0.000000	4.000000	0.282095	
0.131313	1.000000	0.750000	1.281250	0.000000	4.000000	0.282095	
0.141414	1.000000	0.750000	1.281250	0.000000	4.000000	0.282095	
0.151515	1.000000	0.750000	1.281250	0.000000	4.000000	0.282095	
0.161616	1.000000	0.750000	1.281250	0.000000	4.000000	0.282095	
0.171717	1.000000	0.750000	1.281250	0.000000	4.000000	0.282095	
0.181818	1.000000	0.750000	1.281250	0.000000	4.000000	0.282095	
0.191919	1.000000	0.750000	1.281250	0.000000	4.000000	0.282095	
0.202020	1.000000	0.750000	1.281250	0.000000	4.000000	0.282095	
0.212121	1.000000	0.750000	1.281250	0.000000	4.000000	0.282095	
0.222222	1.000000	0.750000	1.281250	0.000000	4.000000	0.282095	
0.232323	1.000000	0.750000	1.281250	0.000000	4.000000	0.282095	
0.242424	1.000000	0.750000	1.281250	0.000000	4.000000	0.282095	
0.252525	1.000000	0.750000	1.281250	0.000000	4.000000	0.282095	
0.262626	1.000000	0.750000	1.281250	0.000000	4.000000	0.282095	
0.272727	1.000000	0.750000	1.281250	0.000000	4.000000	0.282095	
0.282828	1.000000	0.750000	1.281250	0.000000	4.000000	0.282095	
0.292929	1.000000	0.750000	1.281250	0.000000	4.000000	0.282095	
0.303030	1.000000	0.750000	1.281250	0.000000	4.000000	0.282095	
0.313131	1.000000	0.750000	1.281250	0.000000	4.000000	0.282095	
0.323232	1.000000	0.750000	1.281250	0.000000	4.000000	0.282095	
0.333333	1.000000	0.750000	1.281250	0.000000	4.000000	0.282095	
0.343434	1.000000	0.750000	1.281250	0.000000	4.000000	0.282095	
0.353535	1.000000	0.750000	1.281250	0.000000	4.000000	0.282095	
0.363636	1.000000	0.750000	1.281250	0.000000	4.000000	0.282095	
0.373737	1.000000	0.750000	1.281250	0.000000	4.000000	0.282095	
0.383838	1.000000	0.750000	1.281250	0.000000	4.000000	0.282095	
0.393939	1.000000	0.750000	1.281250	0.000000	4.000000	0.282095	
0.404040	1.000000	0.750000	1.281250	0.000000	4.000000	0.282095	
0.414141	1.000000	0.750000	1.281250	0.000000	4.000000	0.282095	
0.424242	1.000000	0.750000	1.281250	0.000000	4.000000	0.282095	
0.434343	1.000000	0.750000	1.281250	0.000000	4.000000	0.282095	
0.444444	1.000000	0.750000	1.281250	0.000000	4.000000	0.282095	
0.454545	1.000000	0.750000	1.281250	0.000000	4.000000	0.282095	
0.464646	1.000000	0.750000	1.281250	0.000000	4.000000	0.282095	
0.474747	1.000000	0.750000	1.281250	0.000000	4.000000	0.282095	
0.484848	1.000000	0.750000	1.281250	0.000000	4.000000	0.282095	
0.494949	1.000000	0.750000	1.281250	0.000000	4.000000	0.282095	
0.505051	0.125000	0.000000	0.100000	0.000000	3.200000	0.039424	
0.515152	0.125000	0.000000	0.100000	0.000000	3.200000	0.039424	
0.525253	0.125000	0.000000	0.100000	0.000000	3.200000	0.039424	
0.535354	0.125000	0.000000	0.100000	0.000000	3.200000	0.039424	
0.545455	0.125000	0.000000	0.100000	0.000000	3.200000	0.039424	
0.555556	0.125000	0.000000	0.100000	0.000000	3.200000	0.039424	
0.565657	0.125000	0.000000	0.100000	0.000000	3.200000	0.039424	
0.575758	0.125000	0.000000	0.100000	0.000000	3.200000	0.039424	
0.585859	0.125000	0.000000	0.100000	0.000000	3.200000	0.039424	
0.595960	0.125000	0.000000	0.100000	0.000000	3.200000	0.039424	
0.606061	0.125000	0.000000	0.100000	0.000000	3.200000	0.039424	
0.616162	0.125000	0.000000	0.100000	0.000000	3.200000	0.039424	
0.626263	0.125000	0.000000	0.100000	0.000000	3.200000	0.039424	
0.636364	0.125000	0.000000	0.100000	0.000000	3.200000	0.039424	
0.646465	0.125000	0.000000	0.100000	0.000000	3.200000	0.039424	
0.656566	0.125000	0.000000	0.100000	0.000000	3.200000	0.039424	
0.666667	0.125000	0.000000	0.100000	0.000000	3.200000	0.039424	
0.676768	0.125000	0.000000	0.100000	0.000000	3.200000	0.039424	
0.686869	0.125000	0.000000	0.100000	0.000000	3.200000	0.039424	
0.696970	0.125000	0.000000	0.100000	0.000000	3.200000	0.039424	
0.707071	0.125000	0.000000	0.100000	0.000000	3.200000	0.039424	
0.717172	0.125000	0.000000	0.100000	0.000000	3.200000	0.039424	
0.727273	0.125000	0.000000	0.100000	0.000000	3.200000	0.039424	
0.737374	0.125000	0.000000	0.100000	0.000000	3.200000	0.039424	
0.747475	0.125000	0.000000	0.100000	0.000000	3.200000	0.039424	
0.757576	0.125000	0.000000	0.100000	0.000000	3.200000	0.039424	
0.767677	0.125000	0.000000	0.100000	0.000000	3.200000	0.039424	
0.777778	0.125000	0.000000	0.100000	0.000000	3.200000	0.039424	
0.787879	0.125000	0.000000	0.100000	0.000000	3.200000	0.039424	
0.797980	0.125000	0.000000	0.100000	0.000000	3.200000	0.039424	
0.808081	0.125000	0.000000	0.100000	0.000000	3.200000	0.039424	
0.818182	0.125000	0.000000	0.100000	0.000000	3.200000	0.039424	
0.828283	0.125000	0.000000	0.100000	0.000000	3.200000	0.039424	
0.838384	0.125000	0.000000	0.100000	0.000000	3.200000	0.039424	
0.848485	0.125000	0.000000	0.100000	0.000000	3.200000	0.039424	
0.858586	0.125000	0.000000	0.100000	0.000000	3.200000	0.039424	
0.868687	0.125000	0.000000	0.100000	0.000000	3.200000	0.039424	
0.878788	0.125000	0.000000	0.100000	0.000000	3.200000	0.039424	
0.888889	0.125000	0.000000	0.100000	0.000000	3.200000	0.039424	
0.898990	0.125000	0.000000	0.100000	0.000000	3.200000	0.039424	
0.909091	0.125000	0.000000	0.100000	0.000000	3.200000	0.039424	
0.919192	0.125000	0.000000	0.100000	0.000000	3.200000	0.039424	
0.929293	0.125000	0.000000	0.100000	0.000000	3.200000	0.039424	
0.939394	0.125000	0.000000	0.100000	0.000000	3.200000	0.039424	
0.949495	0.125000	0.000000	0.100000	0.000000	3.200000	0.039424	
0.959596	0.125000	0.000000	0.100000	0.000000	3.200000	0.039424	
0.969697	0.125000	0.000000	0.100000	0.000000	3.200000	0.039424	
0.979798	0.125000	0.000000	0.100000	0.000000	3.200000	0.039424	
0.989899	0.125000	0.000000	0.100000	0.000000	3.200000	0.039424	
1.000000	0.125000	0.000000	0.100000	0.000000	3.200000	0.039424	
ZONE T = "time 0.0002"
I = 100, J = 1, K = 1, F = POINT

0.000000	1.000000	0.750000	1.281250	1.000000	4.000000	0.282095	
0.010101	1.000000	0.750000	1.281250	1.000000	4.000000	0.282095	
0.020202	1.000000	0.750000	1.281250	1.000000	4.000000	0.282095	
0.030303	1.000000	0.750000	1.281250	1.000000	4.000000	0.282095	
0.040404	1.000000	0.750000	1.281250	1.000000	4.000000	0.282095	
0.050505	1.000000	0.750000	1.281250	1.000000	4.000000	0.282095	
0.060606	1.000000	0.750000	1.281250	1.000000	4.000000	0.282095	
0.070707	1.000000	0.750000	1.281250	1.000000	4.000000	0.282095	
0.080808	1.000000	0.750000	1.281250	1.000000	4.000000	0.282095	
0.090909	1.000000	0.750000	1.281250	1.000000	4.000000	0.282095	
0.101010	1.000000	0.750000	1.281250	1.000000	4.000000	0.282095	
0.111111	1.000000	0.750000	1.281250	1.000000	4.000000	0.282095	
0.121212	1.000000	0.750000	1.281250	1.000000	4.000000	0.282095	
0.131313	1.000000	0.750000	1.281250	1.000000	4.000000	0.282095	
0.141414	1.000000	0.750000	1.281250	1.000000	4.000000	0.282095	
0.151515	1.000000	0.750000	1.281250	1.000000	4.000000	0.282095	
0.161616	1.000000	0.750000	1.281250	1.000000	4.000000	0.282095	
0.171717	1.000000	0.750000	1.281250	1.000000	4.000000	0.282095	
0.181818	1.000000	0.750000	1.281250	1.000000	4.000000	0.282095	
0.191919	1.000000	0.750000	1.281250	1.000000	4.000000	0.282095	
0.202020	1.000000	0.750000	1.281250	1.000000	4.000000	0.282095	
0.212121	1.000000	0.750000	1.281250	1.000000	4.000000	0.282095	
0.222222	1.000000	0.750000	1.281250	1.000000	4.000000	0.282095	
0.232323	1.000000	0.750000	1.281250	1.000000	4.000000	0.282095	
0.242424	1.000000	0.750000	1.281250	1.000000	4.000000	0.282095	
0.252525	1.000000	0.750000	1.281250	1.000000	4.000000	0.282095	
0.262626	1.000000	0.750000	1.281250	1.000000	4.000000	0.282095	
0.272727	1.000000	0.750000	1.281250	1.000000	4.000000	0.282095	
0.282828	1.000000	0.750000	1.281250	1.000000	4.000000	0.282095	
0.292929	1.000000	0.750000	1.281250	1.000000	4.000000	0.282095	
0.303030	1.000000	0.750000	1.281250	1.000000	4.000000	0.282095	
0.313131	1.000000	0.750000	1.281250	1.000000	4.000000	0.282095	
0.323232	1.000000	0.750000	1.281250	1.000000	4.000000	0.282095	
0.333333	1.000000	0.750000	1.281250	1.000000	4.000000	0.282095	
0.343434	1.000000	0.750000	1.281250	1.000000	4.000000	0.282095	
0.353535	1.000000	0.750000	1.281250	1.000000	4.000000	0.282095	
0.363636	1.000000	0.750000	1.281250	1.000000	4.000000	0.282095	
0.373737	1.000000	0.750000	1.281250	1.000000	4.000000	0.282095	
0.383838	1.000000	0.750000	1.281250	1.000000	4.000000	0.282095	
0.393939	1.000000	0.750000	1.281250	1.000000	4.000000	0.282095	
0.404040	1.000000	0.750000	1.281250	1.000000	4.000000	0.282095	
0.414141	1.000000	0.750000	1.281250	1.000000	4.000000	0.282095	
0.424242	1.000000	0.750000	1.281250	1.000000	4.000000	0.282095	
0.434343	1.000000	0.750000	1.281250	1.000000	4.000000	0.282095	
0.444444	1.000000	0.750000	1.281250	1.000000	4.000000	0.282095	
0.454545	1.000000	0.750000	1.281250	1.000000	4.000000	0.282095	
0.464646	1.000000	0.750000	1.281250	1.000000	4.000000	0.282095	
0.474747	1.000000	0.750000	1.281250	1.000000	4.000000	0.282095	
0.484848	0.999998	0.750005	1.281245	0.999991	3.999972	0.282095	
0.494949	0.995710	0.759469	1.275301	0.988142	3.969596	0.281958	
0.505051	0.145048	0.299346	0.157625	0.151126	4.167619	0.040086	
0.515152	0.125016	0.000392	0.100083	0.100083	3.202236	0.039415	
0.525253	0.125000	0.000000	0.100000	0.100000	3.200000	0.039424	
0.535354	0.125000	0.000000	0.100000	0.100000	3.200000	0.039424	
0.545455	0.125000	0.000000	0.100000	0.100000	3.200000	0.039424	
0.555556	0.125000	-0.000000	0.100000	0.100000	3.200000	0.039424	
0.565657	0.125000	-0.000000	0.100000	0.100000	3.200000	0.039424	
0.575758	0.125000	-0.000000	0.100000	0.100000	3.200000	0.039424	
0.585859	0.125000	-0.000000	0.100000	0.100000	3.200000	0.039424	
0.595960	0.125000	-0.000000	0.100000	0.100000	3.200000	0.039424	
0.606061	0.125000	-0.000000	0.100000	0.100000	3.200000	0.039424	
0.616162	0.125000	-0.000000	0.100000	0.100000	3.200000	0.039424	
0.626263	0.125000	-0.000000	0.100000	0.100000	3.200000	0.039424	
0.636364	0.125000	-0.000000	0.100000	0.100000	3.200000	0.039424	
0.646465	0.125000	-0.000000	0.100000	0.100000	3.200000	0.039424	
0.656566	0.125000	-0.000000	0.100000	0.100000	3.200000	0.039424	
0.666667	0.125000	-0.000000	0.100000	0.100000	3.200000	0.039424	
0.676768	0.125000	-0.000000	0.100000	0.100000	3.200000	0.039424	
0.686869	0.125000	-0.000000	0.100000	0.100000	3.200000	0.039424	
0.696970	0.125000	-0.000000	0.100000	0.100000	3.200000	0.039424	
0.707071	0.125000	-0.000000	0.100000	0.100000	3.200000	0.039424	
0.717172	0.125000	-0.000000	0.100000	0.100000	3.200000	0.039424	
0.727273	0.125000	-0.000000	0.100000	0.100000	3.200000	0.039424	
0.737374	0.125000	-0.000000	0.100000	0.100000	3.200000	0.039424	
0.747475	0.125000	-0.000000	0.100000	0.100000	3.200000	0.039424	
0.757576	0.125000	-0.000000	0.100000	0.100000	3.200000	0.039424	
0.767677	0.125000	-0.000000	0.100000	0.100000	3.200000	0.039424	
0.777778	0.125000	-0.000000	0.100000	0.100000	3.200000	0.039424	
0.787879	0.125000	-0.000000	0.100000	0.100000	3.200000	0.039424	
0.797980	0.125000	-0.000000	0.100000	0.100000	3.200000	0.039424	
0.808081	0.125000	-0.000000	0.100000	0.100000	3.200000	0.039424	
0.818182	0.125000	-0.000000	0.100000	0.100000	3.200000	0.039424	
0.828283	0.125000	-0.000000	0.100000	0.100000	3.200000	0.039424	
0.838384	0.125000	-0.000000	0.100000	0.100000	3.200000	0.039424	
0.848485	0.125000	-0.000000	0.100000	0.100000	3.200000	0.039424	
0.858586	0.125000	-0.000000	0.100000	0.100000	3.200000	0.039424	
0.868687	0.125000	-0.000000	0.100000	0.100000	3.200000	0.039424	
0.878788	0.125000	-0.000000	0.100000	0.100000	3.200000	0.039424	
0.888889	0.125000	-0.000000	0.100000	0.100000	3.200000	0.039424	
0.898990	0.125000	-0.000000	0.100000	0.100000	3.200000	0.039424	
0.909091	0.125000	-0.000000	0.100000	0.100000	3.200000	0.039424	
0.919192	0.125000	-0.000000	0.100000	0.100000	3.200000	0.039424	
0.929293	0.125000	-0.000000	0.100000	0.100000	3.200000	0.039424	
0.939394	0.125000	-0.000000	0.100000	0.100000	3.200000	0.039424	
0.949495	0.125000	-0.000000	0.100000	0.100000	3.200000	0.039424	
0.959596	0.125000	-0.000000	0.100000	0.100000	3.200000	0.039424	
0.969697	0.125000	-0.000000	0.100000	0.100000	3.200000	0.039424	
0.979798	0.125000	-0.000000	0.100000	0.100000	3.200000	0.039424	
0.989899	0.125000	-0.000000	0.100000	0.100000	3.200000	0.039424	
1.000000	0.125000	-0.000000	0.100000	0.100000	3.200000	0.039424	
ZONE T = "time 0.0004"
I = 100, J = 1, K = 1, F = POINT

0.000000	1.000000	0.750000	1.281250	1.000000	4.000000	0.282095	
0.010101	1.000000	0.750000	1.281250	1.000000	4.000000	0.282095	
0.020202	1.000000	0.750000	1.281250	1.000000	4.000000	0.282095	
0.030303	1.000000	0.750000	1.281250	1.000000	4.000000	0.282095	
0.040404	1.000000	0.750000	1.281250	1.000000	4.000000	0.282095	
0.050505	1.000000	0.750000	1.281250	1.000000	4.000000	0.282095	
0.060606	1.000000	0.750000	1.281250	1.000000	4.000000	0.282095	
0.070707	1.000000	0.750000	1.281250	1.000000	4.000000	0.282095	
0.080808	1.000000	0.750000	1.281250	1.000000	4.000000	0.282095	
0.090909	1.000000	0.750000	1.281250	1.000000	4.000000	0.282095	
0.101010	1.000000	0.750000	1.281250	1.000000	4.000000	0.282095	
0.111111	1.000000	0.750000	1.281250	1.000000	4.000000	0.282095	
0.121212	1.000000	0.750000	1.281250	1.000000	4.000000	0.282095	
0.131313	1.000000	0.750000	1.281250	1.000000	4.000000	0.282095	
0.141414	1.000000	0.750000	1.281250	1.000000	4.000000	0.282095	
0.151515	1.000000	0.750000	1.281250	1.000000	4.000000	0.282095	
0.161616	1.000000	0.750000	1.281250	1.000000	4.000000	0.282095	
0.171717	1.000000	0.750000	1.281250	1.000000	4.000000	0.282095	
0.181818	1.000000	0.750000	1.281250	1.000000	4.000000	0.282095	
0.191919	1.000000	0.750000	1.281250	1.000000	4.000000	0.282095	
0.202020	1.000000	0.750000	1.281250	1.000000	4.000000	0.282095	
0.212121	1.000000	0.750000	1.281250	1.000000	4.000000	0.282095	
0.222222	1.000000	0.750000	1.281250	1.000000	4.000000	0.282095	
0.232323	1.000000	0.750000	1.281250	1.000000	4.000000	0.282095	
0.242424	1.000000	0.750000	1.281250	1.000000	4.000000	0.282095	
0.252525	1.000000	0.750000	1.281250	1.000000	4.000000	0.282095	
0.262626	1.000000	0.750000	1.281250	1.000000	4.000000	0.282095	
0.272727	1.000000	0.750000	1.281250	1.000000	4.000000	0.282095	
0.282828	1.000000	0.750000	1.281250	1.000000	4.000000	0.282095	
0.292929	1.000000	0.750000	1.281250	1.000000	4.000000	0.282095	
0.303030	1.000000	0.750000	1.281250	1.000000	4.000000	0.282095	
0.313131	1.000000	0.750000	1.281250	1.000000	4.000000	0.282095	
0.323232	1.000000	0.750000	1.281250	1.000000	4.000000	0.282095	
0.333333	1.000000	0.750000	1.281250	1.000000	4.000000	0.282095	
0.343434	1.000000	0.750000	1.281250	1.000000	4.000000	0.282095	
0.353535	1.000000	0.750000	1.281250	1.000000	4.000000	0.282095	
0.363636	1.000000	0.750000	1.281250	1.000000	4.000000	0.282095	
0.373737	1.000000	0.750000	1.281250	1.000000	4.000000	0.282095	
0.383838	1.000000	0.750000	1.281250	1.000000	4.000000	0.282095	
0.393939	1.000000	0.750000	1.281250	1.000000	4.000000	0.282095	
0.404040	1.000000	0.750000	1.281250	1.000000	4.000000	0.282095	
0.414141	1.000000	0.750000	1.281250	1.000000	4.000000	0.282095	
0.424242	1.000000	0.750000	1.281250	1.000000	4.000000	0.282095	
0.434343	1.000000	0.750000	1.281250	1.000000	4.000000	0.282095	
0.444444	1.000000	0.750000	1.281250	1.000000	4.000000	0.282095	
0.454545	1.000000	0.750000	1.281250	1.000000	4.000000	0.282095	
0.464646	1.000000	0.750000	1.281250	1.000000	4.000000	0.282095	
0.474747	1.000000	0.750000	1.281250	1.000000	4.000000	0.282095	
0.484848	0.999986	0.750042	1.281207	0.999929	3.999772	0.282099	
0.494949	0.991442	0.768938	1.269516	0.976413	3.939368	0.281825	
0.505051	0.164983	0.524750	0.214610	0.191895	4.652465	0.043154	
0.515152	0.125133	0.003206	0.100672	0.100672	3.218063	0.039355	
0.525253	0.125000	0.000002	0.100000	0.100000	3.200013	0.039424	
0.535354	0.125000	0.000000	0.100000	0.100000	3.200000	0.039424	
0.545455	0.125000	0.000000	0.100000	0.100000	3.200000	0.039424	
0.555556	0.125000	-0.000000	0.100000	0.100000	3.200000	0.039424	
0.565657	0.125000	-0.000000	0.100000	0.100000	3.200000	0.039424	
0.575758	0.125000	-0.000000	0.100000	0.100000	3.200000	0.039424	
0.585859	0.125000	-0.000000	0.100000	0.100000	3.200000	0.039424	
0.595960	0.125000	-0.000000	0.100000	0.100000	3.200000	0.039424	
0.606061	0.125000	-0.000000	0.100000	0.100000	3.200000	0.039424	
0.616162	0.125000	-0.000000	0.100000	0.100000	3.200000	0.039424	
0.626263	0.125000	-0.000000	0.100000	0.100000	3.200000	0.039424	
0.636364	0.125000	-0.000000	0.100000	0.100000	3.200000	0.039424	
0.646465	0.125000	-0.000000	0.100000	0.100000	3.200000	0.039424	
0.656566	0.125000	-0.000000	0.100000	0.100000	3.200000	0.039424	
0.666667	0.125000	-0.000000	0.100000	0.100000	3.200000	0.039424	
0.676768	0.125000	-0.000000	0.100000	0.100000	3.200000	0.039424	
0.686869	0.125000	-0.000000	0.100000	0.100000	3.200000	0.039424	
0.696970	0.125000	-0.000000	0.100000	0.100000	3.200000	0.039424	
0.707071	0.125000	-0.000000	0.100000	0.100000	3.200000	0.039424	
0.717172	0.125000	-0.000000	0.100000	0.100000	3.200000	0.039424	
0.727273	0.125000	-0.000000	0.100000	0.100000	3.200000	0.039424	
0.737374	0.125000	-0.000000	0.100000	0.100000	3.200000	0.039424	
0.747475	0.125000	-0.000000	0.100000	0.100000	3.200000	0.039424	
0.757576	0.125000	-0.000000	0.100000	0.100000	3.200000	0.039424	
0.767677	0.125000	-0.000000	0.100000	0.100000	3.200000	0.039424	
0.777778	0.125000	-0.000000	0.100000	0.100000	3.200000	0.039424	
0.787879	0.125000	-0.000000	0.100000	0.100000	3.200000	0.039424	
0.797980	0.125000	-0.000000	0.100000	0.100000	3.200000	0.039424	
0.808081	0.125000	-0.000000	0.100000	0.100000	3.200000	0.039424	
0.818182	0.125000	-0.000000	0.100000	0.100000	3.200000	0.039424	
0.828283	0.125000	-0.000000	0.100000	0.100000	3.200000	0.039424	
0.838384	0.125000	-0.000000	0.100000	0.100000	3.200000	0.039424	
0.848485	0.125000	-0.000000	0.100000	0.100000	3.200000	0.039424	
0.858586	0.125000	-0.000000	0.100000	0.100000	3.200000	0.039424	
0.868687	0.125000	-0.000000	0.100000	0.100000	3.200000	0.039424	
0.878788	0.125000	-0.000000	0.100000	0.100000	3.200000	0.039424	
0.888889	0.125000	-0.000000	0.100000	0.100000	3.200000	0.039424	
0.898990	0.125000	-0.000000	0.100000	0.100000	3.200000	0.039424	
0.909091	0.125000	-0.000000	0.100000	0.100000	3.200000	0.039424	
0.919192	0.125000	-0.000000	0.100000	0.100000	3.200000	0.039424	
0.929293	0.125000	-0.000000	0.100000	0.100000	3.200000	0.039424	
0.939394	0.125000	-0.000000	0.100000	0.100000	3.200000	0.039424	
0.949495	0.125000	-0.000000	0.100000	0.100000	3.200000	0.039424	
0.959596	0.125000	-0.000000	0.100000	0.100000	3.200000	0.039424	
0.969697	0.125000	-0.000000	0.100000	0.100000	3.200000	0.039424	
0.979798	0.125000	-0.000000	0.100000	0.100000	3.200000	0.039424	
0.989899	0.125000	-0.000000	0.100000	0.100000	3.200000	0.039424	
1.000000	0.125000	-0.000000	0.100000	0.100000	3.200000	0.039424	
ZONE T = "time 0.0006"
I = 100, J = 1, K = 1, F = POINT

0.000000	1.000000	0.750000	1.281250	1.000000	4.000000	0.282095	
0.010101	1.000000	0.750000	1.281250	1.000000	4.000000	0.282095	
0.020202	1.000000	0.750000	1.281250	1.000000	4.000000	0.282095	
0.030303	1.000000	0.750000	1.281250	1.000000	4.000000	0.282095	
0.040404	1.000000	0.750000	1.281250	1.000000	4.000000	0.282095	
0.050505	1.000000	0.750000	1.281250	1.000000	4.000000	0.282095	
0.060606	1.000000	0.750000	1.281250	1.000000	4.000000	0.282095	
0.070707	1.000000	0.750000	1.281250	1.000000	4.000000	0.282095	
0.080808	1.000000	0.750000	1.281250	1.000000	4.000000	0.282095	
0.090909	1.000000	0.750000	1.281250	1.000000	4.000000	0.282095	
0.101010	1.000000	0.750000	1.281250	1.000000	4.000000	0.282095	
0.111111	1.000000	0.750000	1.281250	1.000000	4.000000	0.282095	
0.121212	1.000000	0.750000	1.281250	1.000000	4.000000	0.282095	
0.131313	1.000000	0.750000	1.281250	1.000000	4.000000	0.282095	
0.141414	1.000000	0.750000	1.281250	1.000000	4.000000	0.282095	
0.151515	1.000000	0.750000	1.281250	1.000000	4.000000	0.282095	
0.161616	1.000000	0.750000	1.281250	1.000000	4.000000	0.282095	
0.171717	1.000000	0.750000	1.281250	1.000000	4.000000	0.282095	
0.181818	1.000000	0.750000	1.281250	1.000000	4.000000	0.282095	
0.191919	1.000000	0.750000	1.281250	1.000000	4.000000	0.282095	
0.202020	1.000000	0.750000	1.281250	1.000000	4.000000	0.282095	
0.212121	1.000000	0.750000	1.281250	1.000000	4.000000	0.282095	
0.222222	1.000000	0.750000	1.281250	1.000000	4.000000	0.282095	
0.232323	1.000000	0.750000	1.281250	1.000000	4.000000	0.282095	
0.242424	1.000000	0.750000	1.281250	1.000000	4.000000	0.282095	
0.252525	1.000000	0.750000	1.281250	1.000000	4.000000	0.282095	
0.262626	1.000000	0.750000	1.281250	1.000000	4.000000	0.282095	
0.272727	1.000000	0.750000	1.281250	1.000000	4.000000	0.282095	
0.282828	1.000000	0.750000	1.281250	1.000000	4.000000	0.282095	
0.292929	1.000000	0.750000	1.281250	1.000000	4.000000	0.282095	
0.303030	1.000000	0.750000	1.281250	1.000000	4.000000	0.282095	
0.313131	1.000000	0.750000	1.281250	1.000000	4.000000	0.282095	
0.323232	1.000000	0.750000	1.281250	1.000000	4.000000	0.282095	
0.333333	1.000000	0.750000	1.281250	1.000000	4.000000	0.282095	
0.343434	1.000000	0.750000	1.281250	1.000000	4.000000	0.282095	
0.353535	1.000000	0.750000	1.281250	1.000000	4.000000	0.282095	
0.363636	1.000000	0.750000	1.281250	1.000000	4.000000	0.282095	
0.373737	1.000000	0.750000	1.281250	1.000000	4.000000	0.282095	
0.383838	1.000000	0.750000	1.281250	1.000000	4.000000	0.282095	
0.393939	1.000000	0.750000	1.281250	1.000000	4.000000	0.282095	
0.404040	1.000000	0.750000	1.281250	1.000000	4.000000	0.282095	
0.414141	1.000000	0.750000	1.281250	1.000000	4.000000	0.282095	
0.424242	1.000000	0.750000	1.281250	1.000000	4.000000	0.282095	
0.434343	1.000000	0.750000	1.281250	1.000000	4.000000	0.282095	
0.444444	1.000000	0.750000	1.281250	1.000000	4.000000	0.282095	
0.454545	1.000000	0.750000	1.281250	1.000000	4.000000	0.282095	
0.464646	1.000000	0.750000	1.281250	1.000000	4.000000	0.282095	
0.474747	1.000000	0.750000	1.281250	1.000000	3.999999	0.282095	
0.484848	0.999954	0.750142	1.281107	0.999763	3.999238	0.282109	
0.494949	0.987202	0.778395	1.263954	0.964881	3.909562	0.281687	
0.505051	0.184710	0.699198	0.270427	0.225277	4.878494	0.047182	
0.515152	0.125451	0.010823	0.102269	0.102261	3.260583	0.039197	
0.525253	0.125000	0.000013	0.100003	0.100003	3.200092	0.039424	
0.535354	0.125000	0.000000	0.100000	0.100000	3.200000	0.039424	
0.545455	0.125000	0.000000	0.100000	0.100000	3.200000	0.039424	
0.555556	0.125000	0.000000	0.100000	0.100000	3.200000	0.039424	
0.565657	0.125000	-0.000000	0.100000	0.100000	3.200000	0.039424	
0.575758	0.125000	-0.000000	0.100000	0.100000	3.200000	0.039424	
0.585859	0.125000	-0.000000	0.100000	0.100000	3.200000	0.039424	
0.595960	0.125000	-0.000000	0.100000	0.100000	3.200000	0.039424	
0.606061	0.125000	-0.000000	0.100000	0.100000	3.200000	0.039424	
0.616162	0.125000	-0.000000	0.100000	0.100000	3.200000	0.039424	
0.626263	0.125000	-0.000000	0.100000	0.100000	3.200000	0.039424	
0.636364	0.125000	-0.000000	0.100000	0.100000	3.200000	0.039424	
0.646465	0.125000	-0.000000	0.100000	0.100000	3.200000	0.039424	
0.656566	0.125000	-0.000000	0.100000	0.100000	3.200000	0.039424	
0.666667	0.125000	-0.000000	0.100000	0.100000	3.200000	0.039424	
0.676768	0.125000	-0.000000	0.100000	0.100000	3.200000	0.039424	
0.686869	0.125000	-0.000000	0.100000	0.100000	3.200000	0.039424	
0.696970	0.125000	-0.000000	0.100000	0.100000	3.200000	0.039424	
0.707071	0.125000	-0.000000	0.100000	0.100000	3.200000	0.039424	
0.717172	0.125000	-0.000000	0.100000	0.100000	3.200000	0.039424	
0.727273	0.125000	-0.000000	0.100000	0.100000	3.200000	0.039424	
0.737374	0.125000	-0.000000	0.100000	0.100000	3.200000	0.039424	
0.747475	0.125000	-0.000000	0.100000	0.100000	3.200000	0.039424	
0.757576	0.125000	-0.000000	0.100000	0.100000	3.200000	0.039424	
0.767677	0.125000	-0.000000	0.100000	0.100000	3.200000	0.039424	
0.777778	0.125000	-0.000000	0.100000	0.100000	3.200000	0.039424	
0.787879	0.125000	-0.000000	0.100000	0.100000	3.200000	0.039424	
0.797980	0.125000	-0.000000	0.100000	0.100000	3.200000	0.039424	
0.808081	0.125000	-0.000000	0.100000	0.100000	3.200000	0.039424	
0.818182	0.125000	-0.000000	0.100000	0.100000	3.200000	0.039424	
0.828283	0.125000	-0.000000	0.100000	0.100000	3.200000	0.039424	
0.838384	0.125000	-0.000000	0.100000	0.100000	3.200000	0.039424	
0.848485	0.125000	-0.000000	0.100000	0.100000	3.200000	0.039424	
0.858586	0.125000	-0.000000	0.100000	0.100000	3.200000	0.039424	
0.868687	0.125000	-0.000000	0.100000	0.100000	3.200000	0.039424	
0.878788	0.125000	-0.000000	0.100000	0.100000	3.200000	0.039424	
0.888889	0.125000	-0.000000	0.100000	0.100000	3.200000	0.039424	
0.898990	0.125000	-0.000000	0.100000	0.100000	3.200000	0.039424	
0.909091	0.125000	-0.000000	0.100000	0.100000	3.200000	0.039424	
0.919192	0.125000	-0.000000	0.100000	0.100000	3.200000	0.039424	
0.929293	0.125000	-0.000000	0.100000	0.100000	3.200000	0.039424	
0.939394	0.125000	-0.000000	0.100000	0.100000	3.200000	0.039424	
0.949495	0.125000	-0.000000	0.100000	0.100000	3.200000	0.039424	
0.959596	0.125000	-0.000000	0.100000	0.100000	3.200000	0.039424	
0.969697	0.125000	-0.000000	0.100000	0.100000	3.200000	0.039424	
0.979798	0.125000	-0.000000	0.100000	0.100000	3.200000	0.039424	
0.989899	0.125000	-0.000000	0.100000	0.100000	3.200000	0.039424	
1.000000	0.125000	-0.000000	0.100000	0.100000	3.200000	0.039424	
ZONE T = "time 0.0008"
I = 100, J = 1, K = 1, F = POINT

0.000000	1.000000	0.750000	1.281250	1.000000	4.000000	0.282095	
0.010101	1.000000	0.750000	1.281250	1.000000	4.000000	0.282095	
0.020202	1.000000	0.750000	1.281250	1.000000	4.000000	0.282095	
0.030303	1.000000	0.750000	1.281250	1.000000	4.000000	0.282095	
0.040404	1.000000	0.750000	1.281250	1.000000	4.000000	0.282095	
0.050505	1.000000	0.750000	1.281250	1.000000	4.000000	0.282095	
0.060606	1.000000	0.750000	1.281250	1.000000	4.000000	0.282095	
0.070707	1.000000	0.750000	1.281250	1.000000	4.000000	0.282095	
0.080808	1.000000	0.750000	1.281250	1.000000	4.000000	0.282095	
0.090909	1.000000	0.750000	1.281250	1.000000	4.000000	0.282095	
0.101010	1.000000	0.750000	1.281250	1.000000	4.000000	0.282095	
0.111111	1.000000	0.750000	1.281250	1.000000	4.000000	0.282095	
0.121212	1.000000	0.750000	1.281250	1.000000	4.000000	0.282095	
0.131313	1.000000	0.750000	1.281250	1.000000	4.000000	0.282095	
0.141414	1.000000	0.750000	1.281250	1.000000	4.000000	0.282095	
0.151515	1.000000	0.750000	1.281250	1.000000	4.000000	0.282095	
0.161616	1.000000	0.750000	1.281250	1.000000	4.000000	0.282095	
0.171717	1.000000	0.750000	1.281250	1.000000	4.000000	0.282095	
0.181818	1.000000	0.750000	1.281250	1.000000	4.000000	0.282095	
0.191919	1.000000	0.750000	1.281250	1.000000	4.000000	0.282095	
0.202020	1.000000	0.750000	1.281250	1.000000	4.000000	0.282095	
0.212121	1.000000	0.750000	1.281250	1.000000	4.000000	0.282095	
0.222222	1.000000	0.750000	1.281250	1.000000	4.000000	0.282095	
0.232323	1.000000	0.750000	1.281250	1.000000	4.000000	0.282095	
0.242424	1.000000	0.750000	1.281250	1.000000	4.000000	0.282095	
0.252525	1.000000	0.750000	1.281250	1.000000	4.000000	0.282095	
0.262626	1.000000	0.750000	1.281250	1.000000	4.000000	0.282095	
0.272727	1.000000	0.750000	1.281250	1.000000	4.000000	0.282095	
0.282828	1.000000	0.750000	1.281250	1.000000	4.000000	0.282095	
0.292929	1.000000	0.750000	1.281250	1.000000	4.000000	0.282095	
0.303030	1.000000	0.750000	1.281250	1.000000	4.000000	0.282095	
0.313131	1.000000	0.750000	1.281250	1.000000	4.000000	0.282095	
0.323232	1.000000	0.750000	1.281250	1.000000	4.000000	0.282095	
0.333333	1.000000	0.750000	1.281250	1.000000	4.000000	0.282095	
0.343434	1.000000	0.750000	1.281250	1.000000	4.000000	0.282095	
0.353535	1.000000	0.750000	1.281250	1.000000	4.000000	0.282095	
0.363636	1.000000	0.750000	1.281250	1.000000	4.000000	0.282095	
0.373737	1.000000	0.750000	1.281250	1.000000	4.000000	0.282095	
0.383838	1.000000	0.750000	1.281250	1.000000	4.000000	0.282095	
0.393939	1.000000	0.750000	1.281250	1.000000	4.000000	0.282095	
0.404040	1.000000	0.750000	1.281250	1.000000	4.000000	0.282095	
0.414141	1.000000	0.750000	1.281250	1.000000	4.000000	0.282095	
0.424242	1.000000	0.750000	1.281250	1.000000	4.000000	0.282095	
0.434343	1.000000	0.750000	1.281250	1.000000	4.000000	0.282095	
0.444444	1.000000	0.750000	1.281250	1.000000	4.000000	0.282095	
0.454545	1.000000	0.750000	1.281250	1.000000	4.000000	0.282095	
0.464646	1.000000	0.750000	1.281250	1.000000	4.000000	0.282095	
0.474747	1.000000	0.750000	1.281249	0.999999	3.999997	0.282095	
0.484848	0.999892	0.750332	1.280919	0.999450	3.998234	0.282127	
0.494949	0.982989	0.787857	1.258599	0.953520	3.880083	0.281548	
0.505051	0.204141	0.836696	0.324610	0.253154	4.960374	0.051713	
0.515152	0.126066	0.025507	0.105372	0.105331	3.342077	0.038906	
0.525253	0.125002	0.000055	0.100014	0.100014	3.200395	0.039422	
0.535354	0.125000	0.000000	0.100000	0.100000	3.200000	0.039424	
0.545455	0.125000	0.000000	0.100000	0.100000	3.200000	0.039424	
0.555556	0.125000	0.000000	0.100000	0.100000	3.200000	0.039424	
0.565657	0.125000	-0.000000	0.100000	0.100000	3.200000	0.039424	
0.575758	0.125000	-0.000000	0.100000	0.100000	3.200000	0.039424	
0.585859	0.125000	-0.000000	0.100000	0.100000	3.200000	0.039424	
0.595960	0.125000	-0.000000	0.100000	0.100000	3.200000	0.039424	