TITLE = "SBBGK1dFDX100-P0RK4w10000IC1"
VARIABLES = "x" "density" "velocity" "energy" "pressure" "temperature" "fugacity"
ZONE T = "time 0.0000"
I = 100, J = 1, K = 1, F = POINT

0.000000	0.837502	0.750000	1.148788	0.000000	4.000000	0.282095	
0.010101	0.837502	0.750000	1.148788	0.000000	4.000000	0.282095	
0.020202	0.837502	0.750000	1.148788	0.000000	4.000000	0.282095	
0.030303	0.837502	0.750000	1.148788	0.000000	4.000000	0.282095	
0.040404	0.837502	0.750000	1.148788	0.000000	4.000000	0.282095	
0.050505	0.837502	0.750000	1.148788	0.000000	4.000000	0.282095	
0.060606	0.837502	0.750000	1.148788	0.000000	4.000000	0.282095	
0.070707	0.837502	0.750000	1.148788	0.000000	4.000000	0.282095	
0.080808	0.837502	0.750000	1.148788	0.000000	4.000000	0.282095	
0.090909	0.837502	0.750000	1.148788	0.000000	4.000000	0.282095	
0.101010	0.837502	0.750000	1.148788	0.000000	4.000000	0.282095	
0.111111	0.837502	0.750000	1.148788	0.000000	4.000000	0.282095	
0.121212	0.837502	0.750000	1.148788	0.000000	4.000000	0.282095	
0.131313	0.837502	0.750000	1.148788	0.000000	4.000000	0.282095	
0.141414	0.837502	0.750000	1.148788	0.000000	4.000000	0.282095	
0.151515	0.837502	0.750000	1.148788	0.000000	4.000000	0.282095	
0.161616	0.837502	0.750000	1.148788	0.000000	4.000000	0.282095	
0.171717	0.837502	0.750000	1.148788	0.000000	4.000000	0.282095	
0.181818	0.837502	0.750000	1.148788	0.000000	4.000000	0.282095	
0.191919	0.837502	0.750000	1.148788	0.000000	4.000000	0.282095	
0.202020	0.837502	0.750000	1.148788	0.000000	4.000000	0.282095	
0.212121	0.837502	0.750000	1.148788	0.000000	4.000000	0.282095	
0.222222	0.837502	0.750000	1.148788	0.000000	4.000000	0.282095	
0.232323	0.837502	0.750000	1.148788	0.000000	4.000000	0.282095	
0.242424	0.837502	0.750000	1.148788	0.000000	4.000000	0.282095	
0.252525	0.837502	0.750000	1.148788	0.000000	4.000000	0.282095	
0.262626	0.837502	0.750000	1.148788	0.000000	4.000000	0.282095	
0.272727	0.837502	0.750000	1.148788	0.000000	4.000000	0.282095	
0.282828	0.837502	0.750000	1.148788	0.000000	4.000000	0.282095	
0.292929	0.837502	0.750000	1.148788	0.000000	4.000000	0.282095	
0.303030	0.837502	0.750000	1.148788	0.000000	4.000000	0.282095	
0.313131	0.837502	0.750000	1.148788	0.000000	4.000000	0.282095	
0.323232	0.837502	0.750000	1.148788	0.000000	4.000000	0.282095	
0.333333	0.837502	0.750000	1.148788	0.000000	4.000000	0.282095	
0.343434	0.837502	0.750000	1.148788	0.000000	4.000000	0.282095	
0.353535	0.837502	0.750000	1.148788	0.000000	4.000000	0.282095	
0.363636	0.837502	0.750000	1.148788	0.000000	4.000000	0.282095	
0.373737	0.837502	0.750000	1.148788	0.000000	4.000000	0.282095	
0.383838	0.837502	0.750000	1.148788	0.000000	4.000000	0.282095	
0.393939	0.837502	0.750000	1.148788	0.000000	4.000000	0.282095	
0.404040	0.837502	0.750000	1.148788	0.000000	4.000000	0.282095	
0.414141	0.837502	0.750000	1.148788	0.000000	4.000000	0.282095	
0.424242	0.837502	0.750000	1.148788	0.000000	4.000000	0.282095	
0.434343	0.837502	0.750000	1.148788	0.000000	4.000000	0.282095	
0.444444	0.837502	0.750000	1.148788	0.000000	4.000000	0.282095	
0.454545	0.837502	0.750000	1.148788	0.000000	4.000000	0.282095	
0.464646	0.837502	0.750000	1.148788	0.000000	4.000000	0.282095	
0.474747	0.837502	0.750000	1.148788	0.000000	4.000000	0.282095	
0.484848	0.837502	0.750000	1.148788	0.000000	4.000000	0.282095	
0.494949	0.837502	0.750000	1.148788	0.000000	4.000000	0.282095	
0.505051	0.121624	0.000000	0.098635	0.000000	3.200000	0.039424	
0.515152	0.121624	0.000000	0.098635	0.000000	3.200000	0.039424	
0.525253	0.121624	0.000000	0.098635	0.000000	3.200000	0.039424	
0.535354	0.121624	0.000000	0.098635	0.000000	3.200000	0.039424	
0.545455	0.121624	0.000000	0.098635	0.000000	3.200000	0.039424	
0.555556	0.121624	0.000000	0.098635	0.000000	3.200000	0.039424	
0.565657	0.121624	0.000000	0.098635	0.000000	3.200000	0.039424	
0.575758	0.121624	0.000000	0.098635	0.000000	3.200000	0.039424	
0.585859	0.121624	0.000000	0.098635	0.000000	3.200000	0.039424	
0.595960	0.121624	0.000000	0.098635	0.000000	3.200000	0.039424	
0.606061	0.121624	0.000000	0.098635	0.000000	3.200000	0.039424	
0.616162	0.121624	0.000000	0.098635	0.000000	3.200000	0.039424	
0.626263	0.121624	0.000000	0.098635	0.000000	3.200000	0.039424	
0.636364	0.121624	0.000000	0.098635	0.000000	3.200000	0.039424	
0.646465	0.121624	0.000000	0.098635	0.000000	3.200000	0.039424	
0.656566	0.121624	0.000000	0.098635	0.000000	3.200000	0.039424	
0.666667	0.121624	0.000000	0.098635	0.000000	3.200000	0.039424	
0.676768	0.121624	0.000000	0.098635	0.000000	3.200000	0.039424	
0.686869	0.121624	0.000000	0.098635	0.000000	3.200000	0.039424	
0.696970	0.121624	0.000000	0.098635	0.000000	3.200000	0.039424	
0.707071	0.121624	0.000000	0.098635	0.000000	3.200000	0.039424	
0.717172	0.121624	0.000000	0.098635	0.000000	3.200000	0.039424	
0.727273	0.121624	0.000000	0.098635	0.000000	3.200000	0.039424	
0.737374	0.121624	0.000000	0.098635	0.000000	3.200000	0.039424	
0.747475	0.121624	0.000000	0.098635	0.000000	3.200000	0.039424	
0.757576	0.121624	0.000000	0.098635	0.000000	3.200000	0.039424	
0.767677	0.121624	0.000000	0.098635	0.000000	3.200000	0.039424	
0.777778	0.121624	0.000000	0.098635	0.000000	3.200000	0.039424	
0.787879	0.121624	0.000000	0.098635	0.000000	3.200000	0.039424	
0.797980	0.121624	0.000000	0.098635	0.000000	3.200000	0.039424	
0.808081	0.121624	0.000000	0.098635	0.000000	3.200000	0.039424	
0.818182	0.121624	0.000000	0.098635	0.000000	3.200000	0.039424	
0.828283	0.121624	0.000000	0.098635	0.000000	3.200000	0.039424	
0.838384	0.121624	0.000000	0.098635	0.000000	3.200000	0.039424	
0.848485	0.121624	0.000000	0.098635	0.000000	3.200000	0.039424	
0.858586	0.121624	0.000000	0.098635	0.000000	3.200000	0.039424	
0.868687	0.121624	0.000000	0.098635	0.000000	3.200000	0.039424	
0.878788	0.121624	0.000000	0.098635	0.000000	3.200000	0.039424	
0.888889	0.121624	0.000000	0.098635	0.000000	3.200000	0.039424	
0.898990	0.121624	0.000000	0.098635	0.000000	3.200000	0.039424	
0.909091	0.121624	0.000000	0.098635	0.000000	3.200000	0.039424	
0.919192	0.121624	0.000000	0.098635	0.000000	3.200000	0.039424	
0.929293	0.121624	0.000000	0.098635	0.000000	3.200000	0.039424	
0.939394	0.121624	0.000000	0.098635	0.000000	3.200000	0.039424	
0.949495	0.121624	0.000000	0.098635	0.000000	3.200000	0.039424	
0.959596	0.121624	0.000000	0.098635	0.000000	3.200000	0.039424	
0.969697	0.121624	0.000000	0.098635	0.000000	3.200000	0.039424	
0.979798	0.121624	0.000000	0.098635	0.000000	3.200000	0.039424	
0.989899	0.121624	0.000000	0.098635	0.000000	3.200000	0.039424	
1.000000	0.121624	0.000000	0.098635	0.000000	3.200000	0.039424	
ZONE T = "time 0.0002"
I = 100, J = 1, K = 1, F = POINT

0.000000	0.837502	0.750000	1.148788	0.913240	4.000001	0.282095	
0.010101	0.837502	0.750000	1.148788	0.913240	4.000001	0.282095	
0.020202	0.837502	0.750000	1.148788	0.913240	4.000001	0.282095	
0.030303	0.837502	0.750000	1.148788	0.913240	4.000001	0.282095	
0.040404	0.837502	0.750000	1.148788	0.913240	4.000001	0.282095	
0.050505	0.837502	0.750000	1.148788	0.913240	4.000001	0.282095	
0.060606	0.837502	0.750000	1.148788	0.913240	4.000001	0.282095	
0.070707	0.837502	0.750000	1.148788	0.913240	4.000001	0.282095	
0.080808	0.837502	0.750000	1.148788	0.913240	4.000001	0.282095	
0.090909	0.837502	0.750000	1.148788	0.913240	4.000001	0.282095	
0.101010	0.837502	0.750000	1.148788	0.913240	4.000001	0.282095	
0.111111	0.837502	0.750000	1.148788	0.913240	4.000001	0.282095	
0.121212	0.837502	0.750000	1.148788	0.913240	4.000001	0.282095	
0.131313	0.837502	0.750000	1.148788	0.913240	4.000001	0.282095	
0.141414	0.837502	0.750000	1.148788	0.913240	4.000001	0.282095	
0.151515	0.837502	0.750000	1.148788	0.913240	4.000001	0.282095	
0.161616	0.837502	0.750000	1.148788	0.913240	4.000001	0.282095	
0.171717	0.837502	0.750000	1.148788	0.913240	4.000001	0.282095	
0.181818	0.837502	0.750000	1.148788	0.913240	4.000001	0.282095	
0.191919	0.837502	0.750000	1.148788	0.913240	4.000001	0.282095	
0.202020	0.837502	0.750000	1.148788	0.913240	4.000001	0.282095	
0.212121	0.837502	0.750000	1.148788	0.913240	4.000001	0.282095	
0.222222	0.837502	0.750000	1.148788	0.913240	4.000001	0.282095	
0.232323	0.837502	0.750000	1.148788	0.913240	4.000001	0.282095	
0.242424	0.837502	0.750000	1.148788	0.913240	4.000001	0.282095	
0.252525	0.837502	0.750000	1.148788	0.913240	4.000001	0.282095	
0.262626	0.837502	0.750000	1.148788	0.913240	4.000001	0.282095	
0.272727	0.837502	0.750000	1.148788	0.913240	4.000001	0.282095	
0.282828	0.837502	0.750000	1.148788	0.913240	4.000001	0.282095	
0.292929	0.837502	0.750000	1.148788	0.913240	4.000001	0.282095	
0.303030	0.837502	0.750000	1.148788	0.913240	4.000001	0.282095	
0.313131	0.837502	0.750000	1.148788	0.913240	4.000001	0.282095	
0.323232	0.837502	0.750000	1.148788	0.913240	4.000001	0.282095	
0.333333	0.837502	0.750000	1.148788	0.913240	4.000001	0.282095	
0.343434	0.837502	0.750000	1.148788	0.913240	4.000001	0.282095	
0.353535	0.837502	0.750000	1.148788	0.913240	4.000001	0.282095	
0.363636	0.837502	0.750000	1.148788	0.913240	4.000001	0.282095	
0.373737	0.837502	0.750000	1.148788	0.913240	4.000001	0.282095	
0.383838	0.837502	0.750000	1.148788	0.913240	4.000001	0.282095	
0.393939	0.837502	0.750000	1.148788	0.913240	4.000001	0.282095	
0.404040	0.837502	0.750000	1.148788	0.913240	4.000001	0.282095	
0.414141	0.837502	0.750000	1.148788	0.913240	4.000001	0.282095	
0.424242	0.837502	0.750000	1.148788	0.913240	4.000001	0.282095	
0.434343	0.837502	0.750000	1.148788	0.913240	4.000001	0.282095	
0.444444	0.837502	0.750000	1.148788	0.913240	4.000001	0.282095	
0.454545	0.837502	0.750000	1.148788	0.913240	4.000001	0.282095	
0.464646	0.837502	0.750000	1.148788	0.913240	4.000001	0.282095	
0.474747	0.837502	0.750000	1.148788	0.913240	4.000001	0.282095	
0.484848	0.837500	0.750009	1.148779	0.913226	3.999951	0.282096	
0.494949	0.833040	0.762005	1.142374	0.900522	3.965796	0.281743	
0.505051	0.141524	0.317693	0.159866	0.152724	4.257584	0.039780	
0.515152	0.121646	0.000531	0.098739	0.098739	3.202772	0.039414	
0.525253	0.121624	0.000000	0.098635	0.098635	3.200003	0.039424	
0.535354	0.121624	0.000000	0.098635	0.098635	3.200003	0.039424	
0.545455	0.121624	0.000000	0.098635	0.098635	3.200003	0.039424	
0.555556	0.121624	0.000000	0.098635	0.098635	3.200003	0.039424	
0.565657	0.121624	0.000000	0.098635	0.098635	3.200003	0.039424	
0.575758	0.121624	0.000000	0.098635	0.098635	3.200003	0.039424	
0.585859	0.121624	0.000000	0.098635	0.098635	3.200003	0.039424	
0.595960	0.121624	0.000000	0.098635	0.098635	3.200003	0.039424	
0.606061	0.121624	0.000000	0.098635	0.098635	3.200003	0.039424	
0.616162	0.121624	0.000000	0.098635	0.098635	3.200003	0.039424	
0.626263	0.121624	0.000000	0.098635	0.098635	3.200003	0.039424	
0.636364	0.121624	0.000000	0.098635	0.098635	3.200003	0.039424	
0.646465	0.121624	0.000000	0.098635	0.098635	3.200003	0.039424	
0.656566	0.121624	0.000000	0.098635	0.098635	3.200003	0.039424	
0.666667	0.121624	0.000000	0.098635	0.098635	3.200003	0.039424	
0.676768	0.121624	0.000000	0.098635	0.098635	3.200003	0.039424	
0.686869	0.121624	0.000000	0.098635	0.098635	3.200003	0.039424	
0.696970	0.121624	0.000000	0.098635	0.098635	3.200003	0.039424	
0.707071	0.121624	0.000000	0.098635	0.098635	3.200003	0.039424	
0.717172	0.121624	0.000000	0.098635	0.098635	3.200003	0.039424	
0.727273	0.121624	0.000000	0.098635	0.098635	3.200003	0.039424	
0.737374	0.121624	0.000000	0.098635	0.098635	3.200003	0.039424	
0.747475	0.121624	0.000000	0.098635	0.098635	3.200003	0.039424	
0.757576	0.121624	0.000000	0.098635	0.098635	3.200003	0.039424	
0.767677	0.121624	0.000000	0.098635	0.098635	3.200003	0.039424	
0.777778	0.121624	0.000000	0.098635	0.098635	3.200003	0.039424	
0.787879	0.121624	0.000000	0.098635	0.098635	3.200003	0.039424	
0.797980	0.121624	0.000000	0.098635	0.098635	3.200003	0.039424	
0.808081	0.121624	0.000000	0.098635	0.098635	3.200003	0.039424	
0.818182	0.121624	0.000000	0.098635	0.098635	3.200003	0.039424	
0.828283	0.121624	0.000000	0.098635	0.098635	3.200003	0.039424	
0.838384	0.121624	0.000000	0.098635	0.098635	3.200003	0.039424	
0.848485	0.121624	0.000000	0.098635	0.098635	3.200003	0.039424	
0.858586	0.121624	0.000000	0.098635	0.098635	3.200003	0.039424	
0.868687	0.121624	0.000000	0.098635	0.098635	3.200003	0.039424	
0.878788	0.121624	0.000000	0.098635	0.098635	3.200003	0.039424	
0.888889	0.121624	0.000000	0.098635	0.098635	3.200003	0.039424	
0.898990	0.121624	0.000000	0.098635	0.098635	3.200003	0.039424	
0.909091	0.121624	0.000000	0.098635	0.098635	3.200003	0.039424	
0.919192	0.121624	0.000000	0.098635	0.098635	3.200003	0.039424	
0.929293	0.121624	0.000000	0.098635	0.098635	3.200003	0.039424	
0.939394	0.121624	0.000000	0.098635	0.098635	3.200003	0.039424	
0.949495	0.121624	0.000000	0.098635	0.098635	3.200003	0.039424	
0.959596	0.121624	0.000000	0.098635	0.098635	3.200003	0.039424	
0.969697	0.121624	0.000000	0.098635	0.098635	3.200003	0.039424	
0.979798	0.121624	0.000000	0.098635	0.098635	3.200003	0.039424	
0.989899	0.121624	0.000000	0.098635	0.098635	3.200003	0.039424	
1.000000	0.121624	0.000000	0.098635	0.098635	3.200003	0.039424	
ZONE T = "time 0.0005"
I = 100, J = 1, K = 1, F = POINT

0.000000	0.837502	0.750000	1.148788	0.913240	4.000001	0.282095	
0.010101	0.837502	0.750000	1.148788	0.913240	4.000001	0.282095	
0.020202	0.837502	0.750000	1.148788	0.913240	4.000001	0.282095	
0.030303	0.837502	0.750000	1.148788	0.913240	4.000001	0.282095	
0.040404	0.837502	0.750000	1.148788	0.913240	4.000001	0.282095	
0.050505	0.837502	0.750000	1.148788	0.913240	4.000001	0.282095	
0.060606	0.837502	0.750000	1.148788	0.913240	4.000001	0.282095	
0.070707	0.837502	0.750000	1.148788	0.913240	4.000001	0.282095	
0.080808	0.837502	0.750000	1.148788	0.913240	4.000001	0.282095	
0.090909	0.837502	0.750000	1.148788	0.913240	4.000001	0.282095	
0.101010	0.837502	0.750000	1.148788	0.913240	4.000001	0.282095	
0.111111	0.837502	0.750000	1.148788	0.913240	4.000001	0.282095	
0.121212	0.837502	0.750000	1.148788	0.913240	4.000001	0.282095	
0.131313	0.837502	0.750000	1.148788	0.913240	4.000001	0.282095	
0.141414	0.837502	0.750000	1.148788	0.913240	4.000001	0.282095	
0.151515	0.837502	0.750000	1.148788	0.913240	4.000001	0.282095	
0.161616	0.837502	0.750000	1.148788	0.913240	4.000001	0.282095	
0.171717	0.837502	0.750000	1.148788	0.913240	4.000001	0.282095	
0.181818	0.837502	0.750000	1.148788	0.913240	4.000001	0.282095	
0.191919	0.837502	0.750000	1.148788	0.913240	4.000001	0.282095	
0.202020	0.837502	0.750000	1.148788	0.913240	4.000001	0.282095	
0.212121	0.837502	0.750000	1.148788	0.913240	4.000001	0.282095	
0.222222	0.837502	0.750000	1.148788	0.913240	4.000001	0.282095	
0.232323	0.837502	0.750000	1.148788	0.913240	4.000001	0.282095	
0.242424	0.837502	0.750000	1.148788	0.913240	4.000001	0.282095	
0.252525	0.837502	0.750000	1.148788	0.913240	4.000001	0.282095	
0.262626	0.837502	0.750000	1.148788	0.913240	4.000001	0.282095	
0.272727	0.837502	0.750000	1.148788	0.913240	4.000001	0.282095	
0.282828	0.837502	0.750000	1.148788	0.913240	4.000001	0.282095	
0.292929	0.837502	0.750000	1.148788	0.913240	4.000001	0.282095	
0.303030	0.837502	0.750000	1.148788	0.913240	4.000001	0.282095	
0.313131	0.837502	0.750000	1.148788	0.913240	4.000001	0.282095	
0.323232	0.837502	0.750000	1.148788	0.913240	4.000001	0.282095	
0.333333	0.837502	0.750000	1.148788	0.913240	4.000001	0.282095	
0.343434	0.837502	0.750000	1.148788	0.913240	4.000001	0.282095	
0.353535	0.837502	0.750000	1.148788	0.913240	4.000001	0.282095	
0.363636	0.837502	0.750000	1.148788	0.913240	4.000001	0.282095	
0.373737	0.837502	0.750000	1.148788	0.913240	4.000001	0.282095	
0.383838	0.837502	0.750000	1.148788	0.913240	4.000001	0.282095	
0.393939	0.837502	0.750000	1.148788	0.913240	4.000001	0.282095	
0.404040	0.837502	0.750000	1.148788	0.913240	4.000001	0.282095	
0.414141	0.837502	0.750000	1.148788	0.913240	4.000001	0.282095	
0.424242	0.837502	0.750000	1.148788	0.913240	4.000001	0.282095	
0.434343	0.837502	0.750000	1.148788	0.913240	4.000001	0.282095	
0.444444	0.837502	0.750000	1.148788	0.913240	4.000001	0.282095	
0.454545	0.837502	0.750000	1.148788	0.913240	4.000001	0.282095	
0.464646	0.837502	0.750000	1.148788	0.913240	4.000001	0.282095	
0.474747	0.837502	0.750000	1.148788	0.913240	4.000000	0.282095	
0.484848	0.837482	0.750078	1.148718	0.913127	3.999591	0.282104	
0.494949	0.828643	0.773788	1.136687	0.888613	3.934589	0.281295	
0.505051	0.161234	0.556487	0.219796	0.194831	4.762365	0.042944	
0.515152	0.121808	0.004340	0.099470	0.099469	3.222252	0.039345	
0.525253	0.121624	0.000002	0.098636	0.098636	3.200016	0.039424	
0.535354	0.121624	0.000000	0.098635	0.098635	3.200003	0.039424	
0.545455	0.121624	0.000000	0.098635	0.098635	3.200003	0.039424	
0.555556	0.121624	0.000000	0.098635	0.098635	3.200003	0.039424	
0.565657	0.121624	0.000000	0.098635	0.098635	3.200003	0.039424	
0.575758	0.121624	0.000000	0.098635	0.098635	3.200003	0.039424	
0.585859	0.121624	0.000000	0.098635	0.098635	3.200003	0.039424	
0.595960	0.121624	0.000000	0.098635	0.098635	3.200003	0.039424	
0.606061	0.121624	0.000000	0.098635	0.098635	3.200003	0.039424	
0.616162	0.121624	0.000000	0.098635	0.098635	3.200003	0.039424	
0.626263	0.121624	0.000000	0.098635	0.098635	3.200003	0.039424	
0.636364	0.121624	0.000000	0.098635	0.098635	3.200003	0.039424	
0.646465	0.121624	0.000000	0.098635	0.098635	3.200003	0.039424	
0.656566	0.121624	0.000000	0.098635	0.098635	3.200003	0.039424	
0.666667	0.121624	0.000000	0.098635	0.098635	3.200003	0.039424	
0.676768	0.121624	0.000000	0.098635	0.098635	3.200003	0.039424	
0.686869	0.121624	0.000000	0.098635	0.098635	3.200003	0.039424	
0.696970	0.121624	0.000000	0.098635	0.098635	3.200003	0.039424	
0.707071	0.121624	0.000000	0.098635	0.098635	3.200003	0.039424	
0.717172	0.121624	0.000000	0.098635	0.098635	3.200003	0.039424	
0.727273	0.121624	0.000000	0.098635	0.098635	3.200003	0.039424	
0.737374	0.121624	0.000000	0.098635	0.098635	3.200003	0.039424	
0.747475	0.121624	0.000000	0.098635	0.098635	3.200003	0.039424	
0.757576	0.121624	0.000000	0.098635	0.098635	3.200003	0.039424	
0.767677	0.121624	0.000000	0.098635	0.098635	3.200003	0.039424	
0.777778	0.121624	0.000000	0.098635	0.098635	3.200003	0.039424	
0.787879	0.121624	0.000000	0.098635	0.098635	3.200003	0.039424	
0.797980	0.121624	0.000000	0.098635	0.098635	3.200003	0.039424	
0.808081	0.121624	0.000000	0.098635	0.098635	3.200003	0.039424	
0.818182	0.121624	0.000000	0.098635	0.098635	3.200003	0.039424	
0.828283	0.121624	0.000000	0.098635	0.098635	3.200003	0.039424	
0.838384	0.121624	0.000000	0.098635	0.098635	3.200003	0.039424	
0.848485	0.121624	0.000000	0.098635	0.098635	3.200003	0.039424	
0.858586	0.121624	0.000000	0.098635	0.098635	3.200003	0.039424	
0.868687	0.121624	0.000000	0.098635	0.098635	3.200003	0.039424	
0.878788	0.121624	0.000000	0.098635	0.098635	3.200003	0.039424	
0.888889	0.121624	0.000000	0.098635	0.098635	3.200003	0.039424	
0.898990	0.121624	0.000000	0.098635	0.098635	3.200003	0.039424	
0.909091	0.121624	0.000000	0.098635	0.098635	3.200003	0.039424	
0.919192	0.121624	0.000000	0.098635	0.098635	3.200003	0.039424	
0.929293	0.121624	0.000000	0.098635	0.098635	3.200003	0.039424	
0.939394	0.121624	0.000000	0.098635	0.098635	3.200003	0.039424	
0.949495	0.121624	0.000000	0.098635	0.098635	3.200003	0.039424	
0.959596	0.121624	0.000000	0.098635	0.098635	3.200003	0.039424	
0.969697	0.121624	0.000000	0.098635	0.098635	3.200003	0.039424	
0.979798	0.121624	0.000000	0.098635	0.098635	3.200003	0.039424	
0.989899	0.121624	0.000000	0.098635	0.098635	3.200003	0.039424	
1.000000	0.121624	0.000000	0.098635	0.098635	3.200003	0.039424	
ZONE T = "time 0.0007"
I = 100, J = 1, K = 1, F = POINT

0.000000	0.837502	0.750000	1.148788	0.913240	4.000001	0.282095	
0.010101	0.837502	0.750000	1.148788	0.913240	4.000001	0.282095	
0.020202	0.837502	0.750000	1.148788	0.913240	4.000001	0.282095	
0.030303	0.837502	0.750000	1.148788	0.913240	4.000001	0.282095	
0.040404	0.837502	0.750000	1.148788	0.913240	4.000001	0.282095	
0.050505	0.837502	0.750000	1.148788	0.913240	4.000001	0.282095	
0.060606	0.837502	0.750000	1.148788	0.913240	4.000001	0.282095	
0.070707	0.837502	0.750000	1.148788	0.913240	4.000001	0.282095	
0.080808	0.837502	0.750000	1.148788	0.913240	4.000001	0.282095	
0.090909	0.837502	0.750000	1.148788	0.913240	4.000001	0.282095	
0.101010	0.837502	0.750000	1.148788	0.913240	4.000001	0.282095	
0.111111	0.837502	0.750000	1.148788	0.913240	4.000001	0.282095	
0.121212	0.837502	0.750000	1.148788	0.913240	4.000001	0.282095	
0.131313	0.837502	0.750000	1.148788	0.913240	4.000001	0.282095	
0.141414	0.837502	0.750000	1.148788	0.913240	4.000001	0.282095	
0.151515	0.837502	0.750000	1.148788	0.913240	4.000001	0.282095	
0.161616	0.837502	0.750000	1.148788	0.913240	4.000001	0.282095	
0.171717	0.837502	0.750000	1.148788	0.913240	4.000001	0.282095	
0.181818	0.837502	0.750000	1.148788	0.913240	4.000001	0.282095	
0.191919	0.837502	0.750000	1.148788	0.913240	4.000001	0.282095	
0.202020	0.837502	0.750000	1.148788	0.913240	4.000001	0.282095	
0.212121	0.837502	0.750000	1.148788	0.913240	4.000001	0.282095	
0.222222	0.837502	0.750000	1.148788	0.913240	4.000001	0.282095	
0.232323	0.837502	0.750000	1.148788	0.913240	4.000001	0.282095	
0.242424	0.837502	0.750000	1.148788	0.913240	4.000001	0.282095	
0.252525	0.837502	0.750000	1.148788	0.913240	4.000001	0.282095	
0.262626	0.837502	0.750000	1.148788	0.913240	4.000001	0.282095	
0.272727	0.837502	0.750000	1.148788	0.913240	4.000001	0.282095	
0.282828	0.837502	0.750000	1.148788	0.913240	4.000001	0.282095	
0.292929	0.837502	0.750000	1.148788	0.913240	4.000001	0.282095	
0.303030	0.837502	0.750000	1.148788	0.913240	4.000001	0.282095	
0.313131	0.837502	0.750000	1.148788	0.913240	4.000001	0.282095	
0.323232	0.837502	0.750000	1.148788	0.913240	4.000001	0.282095	
0.333333	0.837502	0.750000	1.148788	0.913240	4.000001	0.282095	
0.343434	0.837502	0.750000	1.148788	0.913240	4.000001	0.282095	
0.353535	0.837502	0.750000	1.148788	0.913240	4.000001	0.282095	
0.363636	0.837502	0.750000	1.148788	0.913240	4.000001	0.282095	
0.373737	0.837502	0.750000	1.148788	0.913240	4.000001	0.282095	
0.383838	0.837502	0.750000	1.148788	0.913240	4.000001	0.282095	
0.393939	0.837502	0.750000	1.148788	0.913240	4.000001	0.282095	
0.404040	0.837502	0.750000	1.148788	0.913240	4.000001	0.282095	
0.414141	0.837502	0.750000	1.148788	0.913240	4.000001	0.282095	
0.424242	0.837502	0.750000	1.148788	0.913240	4.000001	0.282095	
0.434343	0.837502	0.750000	1.148788	0.913240	4.000001	0.282095	
0.444444	0.837502	0.750000	1.148788	0.913240	4.000001	0.282095	
0.454545	0.837502	0.750000	1.148788	0.913240	4.000001	0.282095	
0.464646	0.837502	0.750000	1.148788	0.913240	4.000001	0.282095	
0.474747	0.837502	0.750000	1.148788	0.913240	4.000000	0.282095	
0.484848	0.837435	0.750261	1.148554	0.912862	3.998630	0.282125	
0.494949	0.824251	0.785674	1.131262	0.876864	3.903737	0.280835	
0.505051	0.180683	0.739089	0.278070	0.228721	4.981817	0.047188	
0.515152	0.122254	0.015368	0.101694	0.101680	3.282094	0.039122	
0.525253	0.121624	0.000017	0.098639	0.098639	3.200098	0.039424	
0.535354	0.121624	0.000000	0.098635	0.098635	3.200003	0.039424	
0.545455	0.121624	0.000000	0.098635	0.098635	3.200003	0.039424	
0.555556	0.121624	0.000000	0.098635	0.098635	3.200003	0.039424	
0.565657	0.121624	0.000000	0.098635	0.098635	3.200003	0.039424	
0.575758	0.121624	0.000000	0.098635	0.098635	3.200003	0.039424	
0.585859	0.121624	0.000000	0.098635	0.098635	3.200003	0.039424	
0.595960	0.121624	0.000000	0.098635	0.098635	3.200003	0.039424	
0.606061	0.121624	0.000000	0.098635	0.098635	3.200003	0.039424	
0.616162	0.121624	0.000000	0.098635	0.098635	3.200003	0.039424	
0.626263	0.121624	0.000000	0.098635	0.098635	3.200003	0.039424	
0.636364	0.121624	0.000000	0.098635	0.098635	3.200003	0.039424	
0.646465	0.121624	0.000000	0.098635	0.098635	3.200003	0.039424	
0.656566	0.121624	0.000000	0.098635	0.098635	3.200003	0.039424	
0.666667	0.121624	0.000000	0.098635	0.098635	3.200003	0.039424	
0.676768	0.121624	0.000000	0.098635	0.098635	3.200003	0.039424	
0.686869	0.121624	0.000000	0.098635	0.098635	3.200003	0.039424	
0.696970	0.121624	0.000000	0.098635	0.098635	3.200003	0.039424	
0.707071	0.121624	0.000000	0.098635	0.098635	3.200003	0.039424	
0.717172	0.121624	0.000000	0.098635	0.098635	3.200003	0.039424	
0.727273	0.121624	0.000000	0.098635	0.098635	3.200003	0.039424	
0.737374	0.121624	0.000000	0.098635	0.098635	3.200003	0.039424	
0.747475	0.121624	0.000000	0.098635	0.098635	3.200003	0.039424	
0.757576	0.121624	0.000000	0.098635	0.098635	3.200003	0.039424	
0.767677	0.121624	0.000000	0.098635	0.098635	3.200003	0.039424	
0.777778	0.121624	0.000000	0.098635	0.098635	3.200003	0.039424	
0.787879	0.121624	0.000000	0.098635	0.098635	3.200003	0.039424	
0.797980	0.121624	0.000000	0.098635	0.098635	3.200003	0.039424	
0.808081	0.121624	0.000000	0.098635	0.098635	3.200003	0.039424	
0.818182	0.121624	0.000000	0.098635	0.098635	3.200003	0.039424	
0.828283	0.121624	0.000000	0.098635	0.098635	3.200003	0.039424	
0.838384	0.121624	0.000000	0.098635	0.098635	3.200003	0.039424	
0.848485	0.121624	0.000000	0.098635	0.098635	3.200003	0.039424	
0.858586	0.121624	0.000000	0.098635	0.098635	3.200003	0.039424	
0.868687	0.121624	0.000000	0.098635	0.098635	3.200003	0.039424	
0.878788	0.121624	0.000000	0.098635	0.098635	3.200003	0.039424	
0.888889	0.121624	0.000000	0.098635	0.098635	3.200003	0.039424	
0.898990	0.121624	0.000000	0.098635	0.098635	3.200003	0.039424	
0.909091	0.121624	0.000000	0.098635	0.098635	3.200003	0.039424	
0.919192	0.121624	0.000000	0.098635	0.098635	3.200003	0.039424	
0.929293	0.121624	0.000000	0.098635	0.098635	3.200003	0.039424	
0.939394	0.121624	0.000000	0.098635	0.098635	3.200003	0.039424	
0.949495	0.121624	0.000000	0.098635	0.098635	3.200003	0.039424	
0.959596	0.121624	0.000000	0.098635	0.098635	3.200003	0.039424	
0.969697	0.121624	0.000000	0.098635	0.098635	3.200003	0.039424	
0.979798	0.121624	0.000000	0.098635	0.098635	3.200003	0.039424	
0.989899	0.121624	0.000000	0.098635	0.098635	3.200003	0.039424	
1.000000	0.121624	0.000000	0.098635	0.098635	3.200003	0.039424	
ZONE T = "time 0.0010"
I = 100, J = 1, K = 1, F = POINT

0.000000	0.837502	0.750000	1.148788	0.913240	4.000001	0.282095	
0.010101	0.837502	0.750000	1.148788	0.913240	4.000001	0.282095	
0.020202	0.837502	0.750000	1.148788	0.913240	4.000001	0.282095	
0.030303	0.837502	0.750000	1.148788	0.913240	4.000001	0.282095	
0.040404	0.837502	0.750000	1.148788	0.913240	4.000001	0.282095	
0.050505	0.837502	0.750000	1.148788	0.913240	4.000001	0.282095	
0.060606	0.837502	0.750000	1.148788	0.913240	4.000001	0.282095	
0.070707	0.837502	0.750000	1.148788	0.913240	4.000001	0.282095	
0.080808	0.837502	0.750000	1.148788	0.913240	4.000001	0.282095	
0.090909	0.837502	0.750000	1.148788	0.913240	4.000001	0.282095	
0.101010	0.837502	0.750000	1.148788	0.913240	4.000001	0.282095	
0.111111	0.837502	0.750000	1.148788	0.913240	4.000001	0.282095	
0.121212	0.837502	0.750000	1.148788	0.913240	4.000001	0.282095	
0.131313	0.837502	0.750000	1.148788	0.913240	4.000001	0.282095	
0.141414	0.837502	0.750000	1.148788	0.913240	4.000001	0.282095	
0.151515	0.837502	0.750000	1.148788	0.913240	4.000001	0.282095	
0.161616	0.837502	0.750000	1.148788	0.913240	4.000001	0.282095	
0.171717	0.837502	0.750000	1.148788	0.913240	4.000001	0.282095	
0.181818	0.837502	0.750000	1.148788	0.913240	4.000001	0.282095	
0.191919	0.837502	0.750000	1.148788	0.913240	4.000001	0.282095	
0.202020	0.837502	0.750000	1.148788	0.913240	4.000001	0.282095	
0.212121	0.837502	0.750000	1.148788	0.913240	4.000001	0.282095	
0.222222	0.837502	0.750000	1.148788	0.913240	4.000001	0.282095	
0.232323	0.837502	0.750000	1.148788	0.913240	4.000001	0.282095	
0.242424	0.837502	0.750000	1.148788	0.913240	4.000001	0.282095	
0.252525	0.837502	0.750000	1.148788	0.913240	4.000001	0.282095	
0.262626	0.837502	0.750000	1.148788	0.913240	4.000001	0.282095	
0.272727	0.837502	0.750000	1.148788	0.913240	4.000001	0.282095	
0.282828	0.837502	0.750000	1.148788	0.913240	4.000001	0.282095	
0.292929	0.837502	0.750000	1.148788	0.913240	4.000001	0.282095	
0.303030	0.837502	0.750000	1.148788	0.913240	4.000001	0.282095	
0.313131	0.837502	0.750000	1.148788	0.913240	4.000001	0.282095	
0.323232	0.837502	0.750000	1.148788	0.913240	4.000001	0.282095	
0.333333	0.837502	0.750000	1.148788	0.913240	4.000001	0.282095	
0.343434	0.837502	0.750000	1.148788	0.913240	4.000001	0.282095	
0.353535	0.837502	0.750000	1.148788	0.913240	4.000001	0.282095	
0.363636	0.837502	0.750000	1.148788	0.913240	4.000001	0.282095	
0.373737	0.837502	0.750000	1.148788	0.913240	4.000001	0.282095	
0.383838	0.837502	0.750000	1.148788	0.913240	4.000001	0.282095	
0.393939	0.837502	0.750000	1.148788	0.913240	4.000001	0.282095	
0.404040	0.837502	0.750000	1.148788	0.913240	4.000001	0.282095	
0.414141	0.837502	0.750000	1.148788	0.913240	4.000001	0.282095	
0.424242	0.837502	0.750000	1.148788	0.913240	4.000001	0.282095	
0.434343	0.837502	0.750000	1.148788	0.913240	4.000001	0.282095	
0.444444	0.837502	0.750000	1.148788	0.913240	4.000001	0.282095	
0.454545	0.837502	0.750000	1.148788	0.913240	4.000001	0.282095	
0.464646	0.837502	0.750000	1.148788	0.913240	4.000001	0.282095	
0.474747	0.837502	0.750001	1.148787	0.913239	3.999996	0.282095	
0.484848	0.837348	0.750603	1.148265	0.912382	3.996907	0.282163	
0.494949	0.819850	0.797762	1.125880	0.864994	3.872001	0.280411	
0.505051	0.199748	0.879874	0.333869	0.256549	5.046458	0.052001	
0.515152	0.123132	0.037928	0.106467	0.106378	3.409826	0.038645	
0.525253	0.121627	0.000081	0.098652	0.098652	3.200457	0.039422	
0.535354	0.121624	0.000000	0.098635	0.098635	3.200003	0.039424	
0.545455	0.121624	0.000000	0.098635	0.098635	3.200003	0.039424	
0.555556	0.121624	0.000000	0.098635	0.098635	3.200003	0.039424	
0.565657	0.121624	0.000000	0.098635	0.098635	3.200003	0.039424	
0.575758	0.121624	0.000000	0.098635	0.098635	3.200003	0.039424	
0.585859	0.121624	0.000000	0.098635	0.098635	3.200003	0.039424	
0.595960	0.121624	0.000000	0.098635	0.098635	3.200003	0.039424	
0.606061	0.121624	0.000000	0.098635	0.098635	3.200003	0.039424	
0.616162	0.121624	0.000000	0.098635	0.098635	3.200003	0.039424	