TITLE = "SBBGK1dMBX100-P0RK4w100IC1"
VARIABLES = "x" "density" "velocity" "energy" "pressure" "temperature" "fugacity"
ZONE T = "time 0.0000"
I = 100, J = 1, K = 1, F = POINT

0.000000	1.000000	0.750000	1.281250	0.000000	4.000000	0.282095	
0.010101	1.000000	0.750000	1.281250	0.000000	4.000000	0.282095	
0.020202	1.000000	0.750000	1.281250	0.000000	4.000000	0.282095	
0.030303	1.000000	0.750000	1.281250	0.000000	4.000000	0.282095	
0.040404	1.000000	0.750000	1.281250	0.000000	4.000000	0.282095	
0.050505	1.000000	0.750000	1.281250	0.000000	4.000000	0.282095	
0.060606	1.000000	0.750000	1.281250	0.000000	4.000000	0.282095	
0.070707	1.000000	0.750000	1.281250	0.000000	4.000000	0.282095	
0.080808	1.000000	0.750000	1.281250	0.000000	4.000000	0.282095	
0.090909	1.000000	0.750000	1.281250	0.000000	4.000000	0.282095	
0.101010	1.000000	0.750000	1.281250	0.000000	4.000000	0.282095	
0.111111	1.000000	0.750000	1.281250	0.000000	4.000000	0.282095	
0.121212	1.000000	0.750000	1.281250	0.000000	4.000000	0.282095	
0.131313	1.000000	0.750000	1.281250	0.000000	4.000000	0.282095	
0.141414	1.000000	0.750000	1.281250	0.000000	4.000000	0.282095	
0.151515	1.000000	0.750000	1.281250	0.000000	4.000000	0.282095	
0.161616	1.000000	0.750000	1.281250	0.000000	4.000000	0.282095	
0.171717	1.000000	0.750000	1.281250	0.000000	4.000000	0.282095	
0.181818	1.000000	0.750000	1.281250	0.000000	4.000000	0.282095	
0.191919	1.000000	0.750000	1.281250	0.000000	4.000000	0.282095	
0.202020	1.000000	0.750000	1.281250	0.000000	4.000000	0.282095	
0.212121	1.000000	0.750000	1.281250	0.000000	4.000000	0.282095	
0.222222	1.000000	0.750000	1.281250	0.000000	4.000000	0.282095	
0.232323	1.000000	0.750000	1.281250	0.000000	4.000000	0.282095	
0.242424	1.000000	0.750000	1.281250	0.000000	4.000000	0.282095	
0.252525	1.000000	0.750000	1.281250	0.000000	4.000000	0.282095	
0.262626	1.000000	0.750000	1.281250	0.000000	4.000000	0.282095	
0.272727	1.000000	0.750000	1.281250	0.000000	4.000000	0.282095	
0.282828	1.000000	0.750000	1.281250	0.000000	4.000000	0.282095	
0.292929	1.000000	0.750000	1.281250	0.000000	4.000000	0.282095	
0.303030	1.000000	0.750000	1.281250	0.000000	4.000000	0.282095	
0.313131	1.000000	0.750000	1.281250	0.000000	4.000000	0.282095	
0.323232	1.000000	0.750000	1.281250	0.000000	4.000000	0.282095	
0.333333	1.000000	0.750000	1.281250	0.000000	4.000000	0.282095	
0.343434	1.000000	0.750000	1.281250	0.000000	4.000000	0.282095	
0.353535	1.000000	0.750000	1.281250	0.000000	4.000000	0.282095	
0.363636	1.000000	0.750000	1.281250	0.000000	4.000000	0.282095	
0.373737	1.000000	0.750000	1.281250	0.000000	4.000000	0.282095	
0.383838	1.000000	0.750000	1.281250	0.000000	4.000000	0.282095	
0.393939	1.000000	0.750000	1.281250	0.000000	4.000000	0.282095	
0.404040	1.000000	0.750000	1.281250	0.000000	4.000000	0.282095	
0.414141	1.000000	0.750000	1.281250	0.000000	4.000000	0.282095	
0.424242	1.000000	0.750000	1.281250	0.000000	4.000000	0.282095	
0.434343	1.000000	0.750000	1.281250	0.000000	4.000000	0.282095	
0.444444	1.000000	0.750000	1.281250	0.000000	4.000000	0.282095	
0.454545	1.000000	0.750000	1.281250	0.000000	4.000000	0.282095	
0.464646	1.000000	0.750000	1.281250	0.000000	4.000000	0.282095	
0.474747	1.000000	0.750000	1.281250	0.000000	4.000000	0.282095	
0.484848	1.000000	0.750000	1.281250	0.000000	4.000000	0.282095	
0.494949	1.000000	0.750000	1.281250	0.000000	4.000000	0.282095	
0.505051	0.125000	0.000000	0.100000	0.000000	3.200000	0.039424	
0.515152	0.125000	0.000000	0.100000	0.000000	3.200000	0.039424	
0.525253	0.125000	0.000000	0.100000	0.000000	3.200000	0.039424	
0.535354	0.125000	0.000000	0.100000	0.000000	3.200000	0.039424	
0.545455	0.125000	0.000000	0.100000	0.000000	3.200000	0.039424	
0.555556	0.125000	0.000000	0.100000	0.000000	3.200000	0.039424	
0.565657	0.125000	0.000000	0.100000	0.000000	3.200000	0.039424	
0.575758	0.125000	0.000000	0.100000	0.000000	3.200000	0.039424	
0.585859	0.125000	0.000000	0.100000	0.000000	3.200000	0.039424	
0.595960	0.125000	0.000000	0.100000	0.000000	3.200000	0.039424	
0.606061	0.125000	0.000000	0.100000	0.000000	3.200000	0.039424	
0.616162	0.125000	0.000000	0.100000	0.000000	3.200000	0.039424	
0.626263	0.125000	0.000000	0.100000	0.000000	3.200000	0.039424	
0.636364	0.125000	0.000000	0.100000	0.000000	3.200000	0.039424	
0.646465	0.125000	0.000000	0.100000	0.000000	3.200000	0.039424	
0.656566	0.125000	0.000000	0.100000	0.000000	3.200000	0.039424	
0.666667	0.125000	0.000000	0.100000	0.000000	3.200000	0.039424	
0.676768	0.125000	0.000000	0.100000	0.000000	3.200000	0.039424	
0.686869	0.125000	0.000000	0.100000	0.000000	3.200000	0.039424	
0.696970	0.125000	0.000000	0.100000	0.000000	3.200000	0.039424	
0.707071	0.125000	0.000000	0.100000	0.000000	3.200000	0.039424	
0.717172	0.125000	0.000000	0.100000	0.000000	3.200000	0.039424	
0.727273	0.125000	0.000000	0.100000	0.000000	3.200000	0.039424	
0.737374	0.125000	0.000000	0.100000	0.000000	3.200000	0.039424	
0.747475	0.125000	0.000000	0.100000	0.000000	3.200000	0.039424	
0.757576	0.125000	0.000000	0.100000	0.000000	3.200000	0.039424	
0.767677	0.125000	0.000000	0.100000	0.000000	3.200000	0.039424	
0.777778	0.125000	0.000000	0.100000	0.000000	3.200000	0.039424	
0.787879	0.125000	0.000000	0.100000	0.000000	3.200000	0.039424	
0.797980	0.125000	0.000000	0.100000	0.000000	3.200000	0.039424	
0.808081	0.125000	0.000000	0.100000	0.000000	3.200000	0.039424	
0.818182	0.125000	0.000000	0.100000	0.000000	3.200000	0.039424	
0.828283	0.125000	0.000000	0.100000	0.000000	3.200000	0.039424	
0.838384	0.125000	0.000000	0.100000	0.000000	3.200000	0.039424	
0.848485	0.125000	0.000000	0.100000	0.000000	3.200000	0.039424	
0.858586	0.125000	0.000000	0.100000	0.000000	3.200000	0.039424	
0.868687	0.125000	0.000000	0.100000	0.000000	3.200000	0.039424	
0.878788	0.125000	0.000000	0.100000	0.000000	3.200000	0.039424	
0.888889	0.125000	0.000000	0.100000	0.000000	3.200000	0.039424	
0.898990	0.125000	0.000000	0.100000	0.000000	3.200000	0.039424	
0.909091	0.125000	0.000000	0.100000	0.000000	3.200000	0.039424	
0.919192	0.125000	0.000000	0.100000	0.000000	3.200000	0.039424	
0.929293	0.125000	0.000000	0.100000	0.000000	3.200000	0.039424	
0.939394	0.125000	0.000000	0.100000	0.000000	3.200000	0.039424	
0.949495	0.125000	0.000000	0.100000	0.000000	3.200000	0.039424	
0.959596	0.125000	0.000000	0.100000	0.000000	3.200000	0.039424	
0.969697	0.125000	0.000000	0.100000	0.000000	3.200000	0.039424	
0.979798	0.125000	0.000000	0.100000	0.000000	3.200000	0.039424	
0.989899	0.125000	0.000000	0.100000	0.000000	3.200000	0.039424	
1.000000	0.125000	0.000000	0.100000	0.000000	3.200000	0.039424	
ZONE T = "time 0.0002"
I = 100, J = 1, K = 1, F = POINT

0.000000	1.000000	0.750000	1.281250	1.000000	4.000000	0.282095	
0.010101	1.000000	0.750000	1.281250	1.000000	4.000000	0.282095	
0.020202	1.000000	0.750000	1.281250	1.000000	4.000000	0.282095	
0.030303	1.000000	0.750000	1.281250	1.000000	4.000000	0.282095	
0.040404	1.000000	0.750000	1.281250	1.000000	4.000000	0.282095	
0.050505	1.000000	0.750000	1.281250	1.000000	4.000000	0.282095	
0.060606	1.000000	0.750000	1.281250	1.000000	4.000000	0.282095	
0.070707	1.000000	0.750000	1.281250	1.000000	4.000000	0.282095	
0.080808	1.000000	0.750000	1.281250	1.000000	4.000000	0.282095	
0.090909	1.000000	0.750000	1.281250	1.000000	4.000000	0.282095	
0.101010	1.000000	0.750000	1.281250	1.000000	4.000000	0.282095	
0.111111	1.000000	0.750000	1.281250	1.000000	4.000000	0.282095	
0.121212	1.000000	0.750000	1.281250	1.000000	4.000000	0.282095	
0.131313	1.000000	0.750000	1.281250	1.000000	4.000000	0.282095	
0.141414	1.000000	0.750000	1.281250	1.000000	4.000000	0.282095	
0.151515	1.000000	0.750000	1.281250	1.000000	4.000000	0.282095	
0.161616	1.000000	0.750000	1.281250	1.000000	4.000000	0.282095	
0.171717	1.000000	0.750000	1.281250	1.000000	4.000000	0.282095	
0.181818	1.000000	0.750000	1.281250	1.000000	4.000000	0.282095	
0.191919	1.000000	0.750000	1.281250	1.000000	4.000000	0.282095	
0.202020	1.000000	0.750000	1.281250	1.000000	4.000000	0.282095	
0.212121	1.000000	0.750000	1.281250	1.000000	4.000000	0.282095	
0.222222	1.000000	0.750000	1.281250	1.000000	4.000000	0.282095	
0.232323	1.000000	0.750000	1.281250	1.000000	4.000000	0.282095	
0.242424	1.000000	0.750000	1.281250	1.000000	4.000000	0.282095	
0.252525	1.000000	0.750000	1.281250	1.000000	4.000000	0.282095	
0.262626	1.000000	0.750000	1.281250	1.000000	4.000000	0.282095	
0.272727	1.000000	0.750000	1.281250	1.000000	4.000000	0.282095	
0.282828	1.000000	0.750000	1.281250	1.000000	4.000000	0.282095	
0.292929	1.000000	0.750000	1.281250	1.000000	4.000000	0.282095	
0.303030	1.000000	0.750000	1.281250	1.000000	4.000000	0.282095	
0.313131	1.000000	0.750000	1.281250	1.000000	4.000000	0.282095	
0.323232	1.000000	0.750000	1.281250	1.000000	4.000000	0.282095	
0.333333	1.000000	0.750000	1.281250	1.000000	4.000000	0.282095	
0.343434	1.000000	0.750000	1.281250	1.000000	4.000000	0.282095	
0.353535	1.000000	0.750000	1.281250	1.000000	4.000000	0.282095	
0.363636	1.000000	0.750000	1.281250	1.000000	4.000000	0.282095	
0.373737	1.000000	0.750000	1.281250	1.000000	4.000000	0.282095	
0.383838	1.000000	0.750000	1.281250	1.000000	4.000000	0.282095	
0.393939	1.000000	0.750000	1.281250	1.000000	4.000000	0.282095	
0.404040	1.000000	0.750000	1.281250	1.000000	4.000000	0.282095	
0.414141	1.000000	0.750000	1.281250	1.000000	4.000000	0.282095	
0.424242	1.000000	0.750000	1.281250	1.000000	4.000000	0.282095	
0.434343	1.000000	0.750000	1.281250	1.000000	4.000000	0.282095	
0.444444	1.000000	0.750000	1.281250	1.000000	4.000000	0.282095	
0.454545	1.000000	0.750000	1.281250	1.000000	4.000000	0.282095	
0.464646	1.000000	0.750000	1.281250	1.000000	4.000000	0.282095	
0.474747	1.000000	0.750000	1.281250	1.000000	4.000000	0.282095	
0.484848	0.999998	0.750005	1.281245	0.999991	3.999972	0.282095	
0.494949	0.995708	0.759476	1.275283	0.988119	3.969511	0.281961	
0.505051	0.145050	0.299294	0.157640	0.151144	4.168065	0.040084	
0.515152	0.125016	0.000398	0.100085	0.100085	3.202290	0.039415	
0.525253	0.125000	0.000000	0.100000	0.100000	3.200001	0.039424	
0.535354	0.125000	0.000000	0.100000	0.100000	3.200000	0.039424	
0.545455	0.125000	0.000000	0.100000	0.100000	3.200000	0.039424	
0.555556	0.125000	-0.000000	0.100000	0.100000	3.200000	0.039424	
0.565657	0.125000	-0.000000	0.100000	0.100000	3.200000	0.039424	
0.575758	0.125000	-0.000000	0.100000	0.100000	3.200000	0.039424	
0.585859	0.125000	-0.000000	0.100000	0.100000	3.200000	0.039424	
0.595960	0.125000	-0.000000	0.100000	0.100000	3.200000	0.039424	
0.606061	0.125000	-0.000000	0.100000	0.100000	3.200000	0.039424	
0.616162	0.125000	-0.000000	0.100000	0.100000	3.200000	0.039424	
0.626263	0.125000	-0.000000	0.100000	0.100000	3.200000	0.039424	
0.636364	0.125000	-0.000000	0.100000	0.100000	3.200000	0.039424	
0.646465	0.125000	-0.000000	0.100000	0.100000	3.200000	0.039424	
0.656566	0.125000	-0.000000	0.100000	0.100000	3.200000	0.039424	
0.666667	0.125000	-0.000000	0.100000	0.100000	3.200000	0.039424	
0.676768	0.125000	-0.000000	0.100000	0.100000	3.200000	0.039424	
0.686869	0.125000	-0.000000	0.100000	0.100000	3.200000	0.039424	
0.696970	0.125000	-0.000000	0.100000	0.100000	3.200000	0.039424	
0.707071	0.125000	-0.000000	0.100000	0.100000	3.200000	0.039424	
0.717172	0.125000	-0.000000	0.100000	0.100000	3.200000	0.039424	
0.727273	0.125000	-0.000000	0.100000	0.100000	3.200000	0.039424	
0.737374	0.125000	-0.000000	0.100000	0.100000	3.200000	0.039424	
0.747475	0.125000	-0.000000	0.100000	0.100000	3.200000	0.039424	
0.757576	0.125000	-0.000000	0.100000	0.100000	3.200000	0.039424	
0.767677	0.125000	-0.000000	0.100000	0.100000	3.200000	0.039424	
0.777778	0.125000	-0.000000	0.100000	0.100000	3.200000	0.039424	
0.787879	0.125000	-0.000000	0.100000	0.100000	3.200000	0.039424	
0.797980	0.125000	-0.000000	0.100000	0.100000	3.200000	0.039424	
0.808081	0.125000	-0.000000	0.100000	0.100000	3.200000	0.039424	
0.818182	0.125000	-0.000000	0.100000	0.100000	3.200000	0.039424	
0.828283	0.125000	-0.000000	0.100000	0.100000	3.200000	0.039424	
0.838384	0.125000	-0.000000	0.100000	0.100000	3.200000	0.039424	
0.848485	0.125000	-0.000000	0.100000	0.100000	3.200000	0.039424	
0.858586	0.125000	-0.000000	0.100000	0.100000	3.200000	0.039424	
0.868687	0.125000	-0.000000	0.100000	0.100000	3.200000	0.039424	
0.878788	0.125000	-0.000000	0.100000	0.100000	3.200000	0.039424	
0.888889	0.125000	-0.000000	0.100000	0.100000	3.200000	0.039424	
0.898990	0.125000	-0.000000	0.100000	0.100000	3.200000	0.039424	
0.909091	0.125000	-0.000000	0.100000	0.100000	3.200000	0.039424	
0.919192	0.125000	-0.000000	0.100000	0.100000	3.200000	0.039424	
0.929293	0.125000	-0.000000	0.100000	0.100000	3.200000	0.039424	
0.939394	0.125000	-0.000000	0.100000	0.100000	3.200000	0.039424	
0.949495	0.125000	-0.000000	0.100000	0.100000	3.200000	0.039424	
0.959596	0.125000	-0.000000	0.100000	0.100000	3.200000	0.039424	
0.969697	0.125000	-0.000000	0.100000	0.100000	3.200000	0.039424	
0.979798	0.125000	-0.000000	0.100000	0.100000	3.200000	0.039424	
0.989899	0.125000	-0.000000	0.100000	0.100000	3.200000	0.039424	
1.000000	0.125000	-0.000000	0.100000	0.100000	3.200000	0.039424	
ZONE T = "time 0.0004"
I = 100, J = 1, K = 1, F = POINT

0.000000	1.000000	0.750000	1.281250	1.000000	4.000000	0.282095	
0.010101	1.000000	0.750000	1.281250	1.000000	4.000000	0.282095	
0.020202	1.000000	0.750000	1.281250	1.000000	4.000000	0.282095	
0.030303	1.000000	0.750000	1.281250	1.000000	4.000000	0.282095	
0.040404	1.000000	0.750000	1.281250	1.000000	4.000000	0.282095	
0.050505	1.000000	0.750000	1.281250	1.000000	4.000000	0.282095	
0.060606	1.000000	0.750000	1.281250	1.000000	4.000000	0.282095	
0.070707	1.000000	0.750000	1.281250	1.000000	4.000000	0.282095	
0.080808	1.000000	0.750000	1.281250	1.000000	4.000000	0.282095	
0.090909	1.000000	0.750000	1.281250	1.000000	4.000000	0.282095	
0.101010	1.000000	0.750000	1.281250	1.000000	4.000000	0.282095	
0.111111	1.000000	0.750000	1.281250	1.000000	4.000000	0.282095	
0.121212	1.000000	0.750000	1.281250	1.000000	4.000000	0.282095	
0.131313	1.000000	0.750000	1.281250	1.000000	4.000000	0.282095	
0.141414	1.000000	0.750000	1.281250	1.000000	4.000000	0.282095	
0.151515	1.000000	0.750000	1.281250	1.000000	4.000000	0.282095	
0.161616	1.000000	0.750000	1.281250	1.000000	4.000000	0.282095	
0.171717	1.000000	0.750000	1.281250	1.000000	4.000000	0.282095	
0.181818	1.000000	0.750000	1.281250	1.000000	4.000000	0.282095	
0.191919	1.000000	0.750000	1.281250	1.000000	4.000000	0.282095	
0.202020	1.000000	0.750000	1.281250	1.000000	4.000000	0.282095	
0.212121	1.000000	0.750000	1.281250	1.000000	4.000000	0.282095	
0.222222	1.000000	0.750000	1.281250	1.000000	4.000000	0.282095	
0.232323	1.000000	0.750000	1.281250	1.000000	4.000000	0.282095	
0.242424	1.000000	0.750000	1.281250	1.000000	4.000000	0.282095	
0.252525	1.000000	0.750000	1.281250	1.000000	4.000000	0.282095	
0.262626	1.000000	0.750000	1.281250	1.000000	4.000000	0.282095	
0.272727	1.000000	0.750000	1.281250	1.000000	4.000000	0.282095	
0.282828	1.000000	0.750000	1.281250	1.000000	4.000000	0.282095	
0.292929	1.000000	0.750000	1.281250	1.000000	4.000000	0.282095	
0.303030	1.000000	0.750000	1.281250	1.000000	4.000000	0.282095	
0.313131	1.000000	0.750000	1.281250	1.000000	4.000000	0.282095	
0.323232	1.000000	0.750000	1.281250	1.000000	4.000000	0.282095	
0.333333	1.000000	0.750000	1.281250	1.000000	4.000000	0.282095	
0.343434	1.000000	0.750000	1.281250	1.000000	4.000000	0.282095	
0.353535	1.000000	0.750000	1.281250	1.000000	4.000000	0.282095	
0.363636	1.000000	0.750000	1.281250	1.000000	4.000000	0.282095	
0.373737	1.000000	0.750000	1.281250	1.000000	4.000000	0.282095	
0.383838	1.000000	0.750000	1.281250	1.000000	4.000000	0.282095	
0.393939	1.000000	0.750000	1.281250	1.000000	4.000000	0.282095	
0.404040	1.000000	0.750000	1.281250	1.000000	4.000000	0.282095	
0.414141	1.000000	0.750000	1.281250	1.000000	4.000000	0.282095	
0.424242	1.000000	0.750000	1.281250	1.000000	4.000000	0.282095	
0.434343	1.000000	0.750000	1.281250	1.000000	4.000000	0.282095	
0.444444	1.000000	0.750000	1.281250	1.000000	4.000000	0.282095	
0.454545	1.000000	0.750000	1.281250	1.000000	4.000000	0.282095	
0.464646	1.000000	0.750000	1.281250	1.000000	4.000000	0.282095	
0.474747	1.000000	0.750000	1.281250	1.000000	4.000000	0.282095	
0.484848	0.999986	0.750043	1.281207	0.999928	3.999770	0.282099	
0.494949	0.991428	0.768996	1.269364	0.976221	3.938644	0.281847	
0.505051	0.164995	0.524359	0.214736	0.192053	4.655954	0.043141	
0.515152	0.125135	0.003290	0.100699	0.100699	3.218885	0.039351	
0.525253	0.125000	0.000002	0.100001	0.100001	3.200014	0.039424	
0.535354	0.125000	0.000000	0.100000	0.100000	3.200000	0.039424	
0.545455	0.125000	0.000000	0.100000	0.100000	3.200000	0.039424	
0.555556	0.125000	-0.000000	0.100000	0.100000	3.200000	0.039424	
0.565657	0.125000	-0.000000	0.100000	0.100000	3.200000	0.039424	
0.575758	0.125000	-0.000000	0.100000	0.100000	3.200000	0.039424	
0.585859	0.125000	-0.000000	0.100000	0.100000	3.200000	0.039424	
0.595960	0.125000	-0.000000	0.100000	0.100000	3.200000	0.039424	
0.606061	0.125000	-0.000000	0.100000	0.100000	3.200000	0.039424	
0.616162	0.125000	-0.000000	0.100000	0.100000	3.200000	0.039424	
0.626263	0.125000	-0.000000	0.100000	0.100000	3.200000	0.039424	
0.636364	0.125000	-0.000000	0.100000	0.100000	3.200000	0.039424	
0.646465	0.125000	-0.000000	0.100000	0.100000	3.200000	0.039424	
0.656566	0.125000	-0.000000	0.100000	0.100000	3.200000	0.039424	
0.666667	0.125000	-0.000000	0.100000	0.100000	3.200000	0.039424	
0.676768	0.125000	-0.000000	0.100000	0.100000	3.200000	0.039424	
0.686869	0.125000	-0.000000	0.100000	0.100000	3.200000	0.039424	
0.696970	0.125000	-0.000000	0.100000	0.100000	3.200000	0.039424	
0.707071	0.125000	-0.000000	0.100000	0.100000	3.200000	0.039424	
0.717172	0.125000	-0.000000	0.100000	0.100000	3.200000	0.039424	
0.727273	0.125000	-0.000000	0.100000	0.100000	3.200000	0.039424	
0.737374	0.125000	-0.000000	0.100000	0.100000	3.200000	0.039424	
0.747475	0.125000	-0.000000	0.100000	0.100000	3.200000	0.039424	
0.757576	0.125000	-0.000000	0.100000	0.100000	3.200000	0.039424	
0.767677	0.125000	-0.000000	0.100000	0.100000	3.200000	0.039424	
0.777778	0.125000	-0.000000	0.100000	0.100000	3.200000	0.039424	
0.787879	0.125000	-0.000000	0.100000	0.100000	3.200000	0.039424	
0.797980	0.125000	-0.000000	0.100000	0.100000	3.200000	0.039424	
0.808081	0.125000	-0.000000	0.100000	0.100000	3.200000	0.039424	
0.818182	0.125000	-0.000000	0.100000	0.100000	3.200000	0.039424	
0.828283	0.125000	-0.000000	0.100000	0.100000	3.200000	0.039424	
0.838384	0.125000	-0.000000	0.100000	0.100000	3.200000	0.039424	
0.848485	0.125000	-0.000000	0.100000	0.100000	3.200000	0.039424	
0.858586	0.125000	-0.000000	0.100000	0.100000	3.200000	0.039424	
0.868687	0.125000	-0.000000	0.100000	0.100000	3.200000	0.039424	
0.878788	0.125000	-0.000000	0.100000	0.100000	3.200000	0.039424	
0.888889	0.125000	-0.000000	0.100000	0.100000	3.200000	0.039424	
0.898990	0.125000	-0.000000	0.100000	0.100000	3.200000	0.039424	
0.909091	0.125000	-0.000000	0.100000	0.100000	3.200000	0.039424	
0.919192	0.125000	-0.000000	0.100000	0.100000	3.200000	0.039424	
0.929293	0.125000	-0.000000	0.100000	0.100000	3.200000	0.039424	
0.939394	0.125000	-0.000000	0.100000	0.100000	3.200000	0.039424	
0.949495	0.125000	-0.000000	0.100000	0.100000	3.200000	0.039424	
0.959596	0.125000	-0.000000	0.100000	0.100000	3.200000	0.039424	
0.969697	0.125000	-0.000000	0.100000	0.100000	3.200000	0.039424	
0.979798	0.125000	-0.000000	0.100000	0.100000	3.200000	0.039424	
0.989899	0.125000	-0.000000	0.100000	0.100000	3.200000	0.039424	
1.000000	0.125000	-0.000000	0.100000	0.100000	3.200000	0.039424	
ZONE T = "time 0.0006"
I = 100, J = 1, K = 1, F = POINT

0.000000	1.000000	0.750000	1.281250	1.000000	4.000000	0.282095	
0.010101	1.000000	0.750000	1.281250	1.000000	4.000000	0.282095	
0.020202	1.000000	0.750000	1.281250	1.000000	4.000000	0.282095	
0.030303	1.000000	0.750000	1.281250	1.000000	4.000000	0.282095	
0.040404	1.000000	0.750000	1.281250	1.000000	4.000000	0.282095	
0.050505	1.000000	0.750000	1.281250	1.000000	4.000000	0.282095	
0.060606	1.000000	0.750000	1.281250	1.000000	4.000000	0.282095	
0.070707	1.000000	0.750000	1.281250	1.000000	4.000000	0.282095	
0.080808	1.000000	0.750000	1.281250	1.000000	4.000000	0.282095	
0.090909	1.000000	0.750000	1.281250	1.000000	4.000000	0.282095	
0.101010	1.000000	0.750000	1.281250	1.000000	4.000000	0.282095	
0.111111	1.000000	0.750000	1.281250	1.000000	4.000000	0.282095	
0.121212	1.000000	0.750000	1.281250	1.000000	4.000000	0.282095	
0.131313	1.000000	0.750000	1.281250	1.000000	4.000000	0.282095	
0.141414	1.000000	0.750000	1.281250	1.000000	4.000000	0.282095	
0.151515	1.000000	0.750000	1.281250	1.000000	4.000000	0.282095	
0.161616	1.000000	0.750000	1.281250	1.000000	4.000000	0.282095	
0.171717	1.000000	0.750000	1.281250	1.000000	4.000000	0.282095	
0.181818	1.000000	0.750000	1.281250	1.000000	4.000000	0.282095	
0.191919	1.000000	0.750000	1.281250	1.000000	4.000000	0.282095	
0.202020	1.000000	0.750000	1.281250	1.000000	4.000000	0.282095	
0.212121	1.000000	0.750000	1.281250	1.000000	4.000000	0.282095	
0.222222	1.000000	0.750000	1.281250	1.000000	4.000000	0.282095	
0.232323	1.000000	0.750000	1.281250	1.000000	4.000000	0.282095	
0.242424	1.000000	0.750000	1.281250	1.000000	4.000000	0.282095	
0.252525	1.000000	0.750000	1.281250	1.000000	4.000000	0.282095	
0.262626	1.000000	0.750000	1.281250	1.000000	4.000000	0.282095	
0.272727	1.000000	0.750000	1.281250	1.000000	4.000000	0.282095	
0.282828	1.000000	0.750000	1.281250	1.000000	4.000000	0.282095	
0.292929	1.000000	0.750000	1.281250	1.000000	4.000000	0.282095	
0.303030	1.000000	0.750000	1.281250	1.000000	4.000000	0.282095	
0.313131	1.000000	0.750000	1.281250	1.000000	4.000000	0.282095	
0.323232	1.000000	0.750000	1.281250	1.000000	4.000000	0.282095	
0.333333	1.000000	0.750000	1.281250	1.000000	4.000000	0.282095	
0.343434	1.000000	0.750000	1.281250	1.000000	4.000000	0.282095	
0.353535	1.000000	0.750000	1.281250	1.000000	4.000000	0.282095	
0.363636	1.000000	0.750000	1.281250	1.000000	4.000000	0.282095	
0.373737	1.000000	0.750000	1.281250	1.000000	4.000000	0.282095	
0.383838	1.000000	0.750000	1.281250	1.000000	4.000000	0.282095	
0.393939	1.000000	0.750000	1.281250	1.000000	4.000000	0.282095	
0.404040	1.000000	0.750000	1.281250	1.000000	4.000000	0.282095	
0.414141	1.000000	0.750000	1.281250	1.000000	4.000000	0.282095	
0.424242	1.000000	0.750000	1.281250	1.000000	4.000000	0.282095	
0.434343	1.000000	0.750000	1.281250	1.000000	4.000000	0.282095	
0.444444	1.000000	0.750000	1.281250	1.000000	4.000000	0.282095	
0.454545	1.000000	0.750000	1.281250	1.000000	4.000000	0.282095	
0.464646	1.000000	0.750000	1.281250	1.000000	4.000000	0.282095	
0.474747	1.000000	0.750000	1.281250	1.000000	3.999999	0.282095	
0.484848	0.999953	0.750146	1.281103	0.999758	3.999220	0.282109	
0.494949	0.987171	0.778528	1.263531	0.964366	3.907596	0.281749	
0.505051	0.184736	0.698315	0.270758	0.225716	4.887324	0.047145	
0.515152	0.125458	0.011109	0.102363	0.102355	3.263425	0.039182	
0.525253	0.125000	0.000015	0.100004	0.100004	3.200108	0.039423	
0.535354	0.125000	0.000000	0.100000	0.100000	3.200000	0.039424	
0.545455	0.125000	0.000000	0.100000	0.100000	3.200000	0.039424	
0.555556	0.125000	0.000000	0.100000	0.100000	3.200000	0.039424	
0.565657	0.125000	-0.000000	0.100000	0.100000	3.200000	0.039424	
0.575758	0.125000	-0.000000	0.100000	0.100000	3.200000	0.039424	
0.585859	0.125000	-0.000000	0.100000	0.100000	3.200000	0.039424	
0.595960	0.125000	-0.000000	0.100000	0.100000	3.200000	0.039424	
0.606061	0.125000	-0.000000	0.100000	0.100000	3.200000	0.039424	
0.616162	0.125000	-0.000000	0.100000	0.100000	3.200000	0.039424	
0.626263	0.125000	-0.000000	0.100000	0.100000	3.200000	0.039424	
0.636364	0.125000	-0.000000	0.100000	0.100000	3.200000	0.039424	
0.646465	0.125000	-0.000000	0.100000	0.100000	3.200000	0.039424	
0.656566	0.125000	-0.000000	0.100000	0.100000	3.200000	0.039424	
0.666667	0.125000	-0.000000	0.100000	0.100000	3.200000	0.039424	
0.676768	0.125000	-0.000000	0.100000	0.100000	3.200000	0.039424	
0.686869	0.125000	-0.000000	0.100000	0.100000	3.200000	0.039424	
0.696970	0.125000	-0.000000	0.100000	0.100000	3.200000	0.039424	
0.707071	0.125000	-0.000000	0.100000	0.100000	3.200000	0.039424	
0.717172	0.125000	-0.000000	0.100000	0.100000	3.200000	0.039424	
0.727273	0.125000	-0.000000	0.100000	0.100000	3.200000	0.039424	
0.737374	0.125000	-0.000000	0.100000	0.100000	3.200000	0.039424	
0.747475	0.125000	-0.000000	0.100000	0.100000	3.200000	0.039424	
0.757576	0.125000	-0.000000	0.100000	0.100000	3.200000	0.039424	
0.767677	0.125000	-0.000000	0.100000	0.100000	3.200000	0.039424	
0.777778	0.125000	-0.000000	0.100000	0.100000	3.200000	0.039424	
0.787879	0.125000	-0.000000	0.100000	0.100000	3.200000	0.039424	
0.797980	0.125000	-0.000000	0.100000	0.100000	3.200000	0.039424	
0.808081	0.125000	-0.000000	0.100000	0.100000	3.200000	0.039424	
0.818182	0.125000	-0.000000	0.100000	0.100000	3.200000	0.039424	
0.828283	0.125000	-0.000000	0.100000	0.100000	3.200000	0.039424	
0.838384	0.125000	-0.000000	0.100000	0.100000	3.200000	0.039424	
0.848485	0.125000	-0.000000	0.100000	0.100000	3.200000	0.039424	
0.858586	0.125000	-0.000000	0.100000	0.100000	3.200000	0.039424	
0.868687	0.125000	-0.000000	0.100000	0.100000	3.200000	0.039424	
0.878788	0.125000	-0.000000	0.100000	0.100000	3.200000	0.039424	
0.888889	0.125000	-0.000000	0.100000	0.100000	3.200000	0.039424	
0.898990	0.125000	-0.000000	0.100000	0.100000	3.200000	0.039424	
0.909091	0.125000	-0.000000	0.100000	0.100000	3.200000	0.039424	
0.919192	0.125000	-0.000000	0.100000	0.100000	3.200000	0.039424	
0.929293	0.125000	-0.000000	0.100000	0.100000	3.200000	0.039424	
0.939394	0.125000	-0.000000	0.100000	0.100000	3.200000	0.039424	
0.949495	0.125000	-0.000000	0.100000	0.100000	3.200000	0.039424	
0.959596	0.125000	-0.000000	0.100000	0.100000	3.200000	0.039424	
0.969697	0.125000	-0.000000	0.100000	0.100000	3.200000	0.039424	
0.979798	0.125000	-0.000000	0.100000	0.100000	3.200000	0.039424	
0.989899	0.125000	-0.000000	0.100000	0.100000	3.200000	0.039424	
1.000000	0.125000	-0.000000	0.100000	0.100000	3.200000	0.039424	
ZONE T = "time 0.0008"
I = 100, J = 1, K = 1, F = POINT

0.000000	1.000000	0.750000	1.281250	1.000000	4.000000	0.282095	
0.010101	1.000000	0.750000	1.281250	1.000000	4.000000	0.282095	
0.020202	1.000000	0.750000	1.281250	1.000000	4.000000	0.282095	
0.030303	1.000000	0.750000	1.281250	1.000000	4.000000	0.282095	
0.040404	1.000000	0.750000	1.281250	1.000000	4.000000	0.282095	
0.050505	1.000000	0.750000	1.281250	1.000000	4.000000	0.282095	
0.060606	1.000000	0.750000	1.281250	1.000000	4.000000	0.282095	
0.070707	1.000000	0.750000	1.281250	1.000000	4.000000	0.282095	
0.080808	1.000000	0.750000	1.281250	1.000000	4.000000	0.282095	
0.090909	1.000000	0.750000	1.281250	1.000000	4.000000	0.282095	
0.101010	1.000000	0.750000	1.281250	1.000000	4.000000	0.282095	
0.111111	1.000000	0.750000	1.281250	1.000000	4.000000	0.282095	
0.121212	1.000000	0.750000	1.281250	1.000000	4.000000	0.282095	
0.131313	1.000000	0.750000	1.281250	1.000000	4.000000	0.282095	
0.141414	1.000000	0.750000	1.281250	1.000000	4.000000	0.282095	
0.151515	1.000000	0.750000	1.281250	1.000000	4.000000	0.282095	
0.161616	1.000000	0.750000	1.281250	1.000000	4.000000	0.282095	
0.171717	1.000000	0.750000	1.281250	1.000000	4.000000	0.282095	
0.181818	1.000000	0.750000	1.281250	1.000000	4.000000	0.282095	
0.191919	1.000000	0.750000	1.281250	1.000000	4.000000	0.282095	
0.202020	1.000000	0.750000	1.281250	1.000000	4.000000	0.282095	
0.212121	1.000000	0.750000	1.281250	1.000000	4.000000	0.282095	
0.222222	1.000000	0.750000	1.281250	1.000000	4.000000	0.282095	
0.232323	1.000000	0.750000	1.281250	1.000000	4.000000	0.282095	
0.242424	1.000000	0.750000	1.281250	1.000000	4.000000	0.282095	
0.252525	1.000000	0.750000	1.281250	1.000000	4.000000	0.282095	
0.262626	1.000000	0.750000	1.281250	1.000000	4.000000	0.282095	
0.272727	1.000000	0.750000	1.281250	1.000000	4.000000	0.282095	
0.282828	1.000000	0.750000	1.281250	1.000000	4.000000	0.282095	
0.292929	1.000000	0.750000	1.281250	1.000000	4.000000	0.282095	
0.303030	1.000000	0.750000	1.281250	1.000000	4.000000	0.282095	
0.313131	1.000000	0.750000	1.281250	1.000000	4.000000	0.282095	
0.323232	1.000000	0.750000	1.281250	1.000000	4.000000	0.282095	
0.333333	1.000000	0.750000	1.281250	1.000000	4.000000	0.282095	
0.343434	1.000000	0.750000	1.281250	1.000000	4.000000	0.282095	
0.353535	1.000000	0.750000	1.281250	1.000000	4.000000	0.282095	
0.363636	1.000000	0.750000	1.281250	1.000000	4.000000	0.282095	
0.373737	1.000000	0.750000	1.281250	1.000000	4.000000	0.282095	
0.383838	1.000000	0.750000	1.281250	1.000000	4.000000	0.282095	
0.393939	1.000000	0.750000	1.281250	1.000000	4.000000	0.282095	
0.404040	1.000000	0.750000	1.281250	1.000000	4.000000	0.282095	
0.414141	1.000000	0.750000	1.281250	1.000000	4.000000	0.282095	
0.424242	1.000000	0.750000	1.281250	1.000000	4.000000	0.282095	
0.434343	1.000000	0.750000	1.281250	1.000000	4.000000	0.282095	
0.444444	1.000000	0.750000	1.281250	1.000000	4.000000	0.282095	
0.454545	1.000000	0.750000	1.281250	1.000000	4.000000	0.282095	
0.464646	1.000000	0.750000	1.281250	1.000000	4.000000	0.282095	
0.474747	1.000000	0.750000	1.281249	0.999999	3.999997	0.282095	
0.484848	0.999888	0.750344	1.280905	0.999428	3.998163	0.282128	
0.494949	0.982945	0.788042	1.257813	0.952603	3.876527	0.281665	
0.505051	0.204175	0.835462	0.325231	0.253974	4.975614	0.051642	
0.515152	0.126080	0.026022	0.105548	0.105505	3.347242	0.038880	
0.525253	0.125002	0.000065	0.100017	0.100017	3.200486	0.039422	
0.535354	0.125000	0.000000	0.100000	0.100000	3.200001	0.039424	
0.545455	0.125000	0.000000	0.100000	0.100000	3.200000	0.039424	
0.555556	0.125000	0.000000	0.100000	0.100000	3.200000	0.039424	
0.565657	0.125000	-0.000000	0.100000	0.100000	3.200000	0.039424	
0.575758	0.125000	-0.000000	0.100000	0.100000	3.200000	0.039424	
0.585859	0.125000	-0.000000	0.100000	0.100000	3.200000	0.039424	
0.595960	0.125000	-0.000000	0.100000	0.100000	3.200000	0.039424	