TITLE = "ARKv2"
VARIABLES = "x" "Density" "Velocity in x" "Energy" "Pressure" "Temperature" "Fugacity"
ZONE T = "Final Time 0.10"
I = 320, J = 1, K = 1, F = POINT

0.000733	1.000000	0.750000	1.281250	1.000000	4.000000	0.282095	
0.003606	1.000000	0.750000	1.281250	1.000000	4.000000	0.282095	
0.007813	1.000000	0.750000	1.281250	1.000000	4.000000	0.282095	
0.012019	1.000000	0.750000	1.281250	1.000000	4.000000	0.282095	
0.014892	1.000000	0.750000	1.281250	1.000000	4.000000	0.282095	
0.016358	1.000000	0.750000	1.281250	1.000000	4.000000	0.282095	
0.019231	1.000000	0.750000	1.281250	1.000000	4.000000	0.282095	
0.023438	1.000000	0.750000	1.281250	1.000000	4.000000	0.282095	
0.027644	1.000000	0.750000	1.281250	1.000000	4.000000	0.282095	
0.030517	1.000000	0.750000	1.281250	1.000000	4.000000	0.282095	
0.031983	1.000000	0.750000	1.281250	1.000000	4.000000	0.282095	
0.034856	1.000000	0.750000	1.281250	1.000000	4.000000	0.282095	
0.039063	1.000000	0.750000	1.281250	1.000000	4.000000	0.282095	
0.043269	1.000000	0.750000	1.281250	1.000000	4.000000	0.282095	
0.046142	1.000000	0.750000	1.281250	1.000000	4.000000	0.282095	
0.047608	1.000000	0.750000	1.281250	1.000000	4.000000	0.282095	
0.050481	1.000000	0.750000	1.281250	1.000000	4.000000	0.282095	
0.054688	1.000000	0.750000	1.281250	1.000000	4.000000	0.282095	
0.058894	1.000000	0.750000	1.281250	1.000000	4.000000	0.282095	
0.061767	1.000000	0.750000	1.281250	1.000000	4.000000	0.282095	
0.063233	1.000000	0.750000	1.281250	1.000000	4.000000	0.282095	
0.066106	1.000000	0.750000	1.281250	1.000000	4.000000	0.282095	
0.070313	1.000000	0.750000	1.281250	1.000000	4.000000	0.282095	
0.074519	1.000000	0.750000	1.281250	1.000000	4.000000	0.282095	
0.077392	1.000000	0.750000	1.281250	1.000000	4.000000	0.282095	
0.078858	1.000000	0.750000	1.281250	1.000000	4.000000	0.282095	
0.081731	1.000000	0.750000	1.281250	1.000000	4.000000	0.282095	
0.085938	1.000000	0.750000	1.281250	1.000000	4.000000	0.282095	
0.090144	1.000000	0.750000	1.281250	1.000000	4.000000	0.282095	
0.093017	1.000000	0.750000	1.281250	1.000000	4.000000	0.282095	
0.094483	1.000000	0.750000	1.281250	1.000000	4.000000	0.282095	
0.097356	1.000000	0.750000	1.281250	1.000000	4.000000	0.282095	
0.101563	1.000000	0.750000	1.281250	1.000000	4.000000	0.282095	
0.105769	1.000000	0.750000	1.281250	1.000000	4.000000	0.282095	
0.108642	1.000000	0.750000	1.281250	1.000000	4.000000	0.282095	
0.110108	1.000000	0.750000	1.281250	1.000000	4.000000	0.282095	
0.112981	1.000000	0.750000	1.281250	1.000000	4.000000	0.282095	
0.117188	1.000000	0.750000	1.281250	1.000000	4.000000	0.282095	
0.121394	1.000000	0.750000	1.281250	1.000000	4.000000	0.282095	
0.124267	1.000000	0.750000	1.281250	1.000000	4.000000	0.282095	
0.125733	1.000000	0.750000	1.281250	1.000000	4.000000	0.282095	
0.128606	1.000000	0.750000	1.281250	1.000000	4.000000	0.282095	
0.132813	1.000000	0.750000	1.281250	1.000000	4.000000	0.282095	
0.137019	1.000000	0.750000	1.281250	1.000000	4.000000	0.282095	
0.139892	1.000000	0.750000	1.281250	1.000000	4.000000	0.282095	
0.141358	1.000000	0.750000	1.281250	1.000000	4.000000	0.282095	
0.144231	1.000000	0.750000	1.281250	1.000000	4.000000	0.282095	
0.148438	1.000000	0.750000	1.281250	1.000000	4.000000	0.282095	
0.152644	1.000000	0.750000	1.281250	1.000000	4.000000	0.282095	
0.155517	1.000000	0.750000	1.281250	1.000000	4.000000	0.282095	
0.156983	1.000000	0.750000	1.281250	1.000000	4.000000	0.282095	
0.159856	1.000000	0.750000	1.281250	1.000000	4.000000	0.282095	
0.164063	1.000000	0.750000	1.281250	1.000000	4.000000	0.282095	
0.168269	1.000000	0.750000	1.281250	1.000000	4.000000	0.282095	
0.171142	1.000000	0.750000	1.281250	1.000000	4.000000	0.282095	
0.172608	1.000000	0.750000	1.281250	1.000000	4.000000	0.282095	
0.175481	1.000000	0.750000	1.281250	1.000000	4.000000	0.282095	
0.179688	1.000000	0.750000	1.281250	1.000000	4.000000	0.282095	
0.183894	1.000000	0.750000	1.281250	1.000000	4.000000	0.282095	
0.186767	1.000000	0.750000	1.281250	1.000000	4.000000	0.282095	
0.188233	1.000000	0.750000	1.281250	1.000000	4.000000	0.282095	
0.191106	1.000000	0.750000	1.281250	1.000000	4.000000	0.282095	
0.195313	1.000000	0.750000	1.281250	1.000000	4.000000	0.282095	
0.199519	1.000000	0.750000	1.281250	1.000000	4.000000	0.282095	
0.202392	1.000000	0.750000	1.281250	1.000000	4.000000	0.282095	
0.203858	1.000000	0.750000	1.281250	1.000000	4.000000	0.282095	
0.206731	1.000000	0.750000	1.281250	1.000000	4.000000	0.282095	
0.210938	1.000000	0.750000	1.281250	1.000000	4.000000	0.282095	
0.215144	1.000000	0.750000	1.281250	1.000000	4.000000	0.282095	
0.218017	1.000000	0.750000	1.281250	1.000000	4.000000	0.282095	
0.219483	1.000000	0.750000	1.281250	1.000000	4.000000	0.282095	
0.222356	1.000000	0.750000	1.281250	1.000000	4.000000	0.282095	
0.226563	1.000000	0.750000	1.281250	1.000000	4.000000	0.282095	
0.230769	1.000000	0.750000	1.281250	1.000000	4.000000	0.282095	
0.233642	1.000000	0.750000	1.281250	1.000000	4.000000	0.282095	
0.235108	1.000000	0.750000	1.281250	1.000000	4.000000	0.282095	
0.237981	1.000000	0.750000	1.281250	1.000000	4.000000	0.282095	
0.242188	1.000000	0.750000	1.281250	1.000000	3.999999	0.282095	
0.246394	1.000000	0.750001	1.281250	0.999999	3.999997	0.282095	
0.249267	1.000000	0.750001	1.281249	0.999998	3.999995	0.282095	
0.250733	0.999999	0.750002	1.281249	0.999998	3.999993	0.282095	
0.253606	0.999999	0.750003	1.281248	0.999996	3.999987	0.282095	
0.257813	0.999997	0.750007	1.281244	0.999989	3.999968	0.282095	
0.262019	0.999994	0.750018	1.281237	0.999975	3.999925	0.282096	
0.264892	0.999989	0.750031	1.281226	0.999956	3.999869	0.282096	
0.266358	0.999985	0.750042	1.281219	0.999942	3.999827	0.282097	
0.269231	0.999974	0.750071	1.281197	0.999901	3.999706	0.282098	
0.273438	0.999946	0.750151	1.281140	0.999792	3.999385	0.282101	
0.277644	0.999889	0.750305	1.281029	0.999581	3.998770	0.282107	
0.280517	0.999824	0.750481	1.280905	0.999344	3.998078	0.282113	
0.281983	0.999779	0.750602	1.280820	0.999181	3.997607	0.282117	
0.284856	0.999662	0.750917	1.280601	0.998758	3.996384	0.282127	
0.289063	0.999393	0.751635	1.280109	0.997803	3.993638	0.282148	
0.293269	0.998960	0.752779	1.279338	0.996294	3.989324	0.282178	
0.296142	0.998538	0.753889	1.278601	0.994842	3.985195	0.282205	
0.297608	0.998274	0.754579	1.278147	0.993944	3.982647	0.282221	
0.300481	0.997649	0.756209	1.277086	0.991832	3.976678	0.282256	
0.304688	0.996432	0.759357	1.275071	0.987788	3.965300	0.282316	
0.308894	0.994801	0.763548	1.272449	0.982462	3.950384	0.282385	
0.311767	0.993421	0.767072	1.270285	0.978021	3.937992	0.282437	
0.313233	0.992629	0.769089	1.269063	0.975494	3.930954	0.282464	
0.316106	0.990897	0.773483	1.266437	0.970023	3.915737	0.282518	
0.320313	0.987926	0.780983	1.262058	0.960772	3.890060	0.282599	
0.324519	0.984435	0.789748	1.257088	0.950091	3.860451	0.282679	
0.327392	0.981759	0.796441	1.253392	0.942019	3.838083	0.282731	
0.328858	0.980305	0.800069	1.251422	0.937670	3.826031	0.282756	
0.331731	0.977288	0.807584	1.247413	0.928724	3.801228	0.282804	
0.335938	0.972489	0.819501	1.241246	0.914693	3.762277	0.282868	
0.340144	0.967270	0.832418	1.234808	0.899688	3.720526	0.282925	
0.343017	0.963487	0.841762	1.230305	0.888960	3.690595	0.282958	
0.344483	0.961492	0.846681	1.227984	0.883352	3.674920	0.282974	
0.347356	0.957466	0.856599	1.223406	0.872130	3.643488	0.283002	
0.351563	0.951314	0.871732	1.216677	0.855217	3.595938	0.283037	
0.355769	0.944890	0.887507	1.209977	0.837847	3.546854	0.283064	
0.358642	0.940364	0.898607	1.205450	0.825781	3.512599	0.283079	
0.360108	0.938016	0.904364	1.203161	0.819572	3.494920	0.283085	
0.362981	0.933342	0.915812	1.198728	0.807326	3.459936	0.283095	
0.367188	0.926344	0.932937	1.192381	0.789249	3.408017	0.283104	
0.371394	0.919188	0.950436	1.186239	0.771075	3.355465	0.283108	
0.374267	0.914222	0.962570	1.182178	0.758646	3.319308	0.283108	
0.375733	0.911666	0.968814	1.180149	0.752305	3.300793	0.283108	
0.378606	0.906618	0.981139	1.176265	0.739895	3.264418	0.283104	
0.382813	0.899144	0.999380	1.170805	0.721790	3.211011	0.283096	
0.387019	0.891590	1.017806	1.165624	0.703812	3.157562	0.283083	
0.389892	0.886394	1.030476	1.162253	0.691632	3.121104	0.283072	
0.391358	0.883732	1.036962	1.160586	0.685451	3.102528	0.283066	
0.394231	0.878502	1.049709	1.157423	0.673417	3.066203	0.283053	
0.398438	0.870816	1.068436	1.153042	0.655999	3.013264	0.283030	
0.402644	0.863111	1.087199	1.148959	0.638860	2.960730	0.283004	
0.405517	0.857849	1.100010	1.146342	0.627334	2.925149	0.282984	
0.406983	0.855165	1.106543	1.145060	0.621512	2.907099	0.282973	
0.409856	0.849913	1.119323	1.142651	0.610229	2.871961	0.282950	
0.414063	0.842251	1.137962	1.139367	0.594027	2.821140	0.282914	
0.418269	0.834643	1.156460	1.136368	0.578242	2.771204	0.282873	
0.421142	0.829492	1.168980	1.134480	0.567724	2.737694	0.282842	
0.422608	0.826880	1.175325	1.133565	0.562444	2.720801	0.282826	
0.425481	0.821802	1.187658	1.131868	0.552279	2.688138	0.282792	
0.429688	0.814482	1.205426	1.129604	0.537862	2.641491	0.282737	
0.433894	0.807334	1.222759	1.127594	0.524055	2.596472	0.282675	
0.436767	0.802577	1.234285	1.126362	0.515015	2.566808	0.282628	
0.438233	0.800194	1.240053	1.125776	0.510533	2.552047	0.282603	
0.441106	0.795625	1.251108	1.124709	0.502025	2.523928	0.282550	
0.445313	0.789210	1.266604	1.123335	0.490276	2.484896	0.282464	
0.449519	0.783185	1.281122	1.122173	0.479461	2.448776	0.282368	
0.452392	0.779336	1.290378	1.121494	0.472667	2.426002	0.282296	
0.453858	0.777463	1.294872	1.121182	0.469398	2.415023	0.282257	
0.456731	0.773990	1.303192	1.120633	0.463396	2.394845	0.282177	
0.460938	0.769410	1.314119	1.119972	0.455622	2.368680	0.282052	
0.465144	0.765482	1.323437	1.119461	0.449095	2.346733	0.281921	
0.468017	0.763190	1.328841	1.119187	0.445359	2.334199	0.281831	
0.469483	0.762143	1.331300	1.119068	0.443673	2.328555	0.281785	
0.472356	0.760326	1.335544	1.118872	0.440783	2.318913	0.281697	
0.476563	0.758198	1.340473	1.118657	0.437466	2.307922	0.281577	
0.480769	0.756633	1.344050	1.118508	0.435091	2.300143	0.281471	
0.483642	0.755836	1.345844	1.118435	0.433913	2.296334	0.281407	
0.485108	0.755502	1.346590	1.118405	0.433428	2.294780	0.281378	
0.487981	0.754966	1.347768	1.118355	0.432665	2.292368	0.281326	
0.492188	0.754410	1.348957	1.118300	0.431905	2.290026	0.281263	
0.496394	0.754050	1.349690	1.118258	0.431444	2.288677	0.281212	
0.499267	0.753882	1.350012	1.118234	0.431246	2.288138	0.281182	
0.500733	0.753813	1.350136	1.118222	0.431172	2.287950	0.281168	
0.503606	0.753704	1.350318	1.118200	0.431064	2.287710	0.281142	
0.507813	0.753589	1.350479	1.118170	0.430974	2.287579	0.281107	
0.512019	0.753507	1.350563	1.118139	0.430933	2.287615	0.281074	
0.514892	0.753461	1.350593	1.118117	0.430923	2.287700	0.281052	
0.516358	0.753439	1.350602	1.118105	0.430921	2.287757	0.281040	
0.519231	0.753400	1.350612	1.118082	0.430923	2.287888	0.281017	
0.523438	0.753345	1.350615	1.118045	0.430935	2.288115	0.280983	
0.527644	0.753289	1.350608	1.118006	0.430952	2.288372	0.280947	
0.530517	0.753250	1.350602	1.117976	0.430965	2.288561	0.280920	
0.531983	0.753230	1.350598	1.117961	0.430972	2.288661	0.280907	
0.534856	0.753188	1.350590	1.117929	0.430986	2.288863	0.280878	
0.539063	0.753121	1.350580	1.117877	0.431006	2.289174	0.280834	
0.543269	0.753048	1.350570	1.117821	0.431027	2.289505	0.280787	
0.546142	0.752993	1.350564	1.117778	0.431040	2.289743	0.280752	
0.547608	0.752963	1.350562	1.117756	0.431047	2.289868	0.280733	
0.550481	0.752901	1.350558	1.117708	0.431059	2.290124	0.280694	
0.554688	0.752801	1.350554	1.117631	0.431078	2.290526	0.280632	
0.558894	0.752686	1.350554	1.117543	0.431095	2.290969	0.280562	
0.561767	0.752596	1.350556	1.117474	0.431106	2.291304	0.280508	
0.563233	0.752545	1.350558	1.117436	0.431112	2.291488	0.280478	
0.566106	0.752435	1.350565	1.117353	0.431122	2.291879	0.280413	
0.570313	0.752234	1.350585	1.117203	0.431136	2.292566	0.280296	
0.574519	0.751957	1.350624	1.117003	0.431149	2.293478	0.280137	
0.577392	0.751691	1.350671	1.116814	0.431156	2.294324	0.279986	
0.578858	0.751519	1.350704	1.116694	0.431158	2.294864	0.279889	
0.581731	0.751082	1.350795	1.116392	0.431162	2.296221	0.279644	
0.585938	0.750052	1.351028	1.115686	0.431160	2.299362	0.279070	
0.590144	0.748216	1.351457	1.114431	0.431147	2.304935	0.278050	
0.593017	0.746171	1.351931	1.113024	0.431129	2.311150	0.276917	
0.594483	0.744777	1.352252	1.112059	0.431115	2.315406	0.276145	
0.597356	0.741083	1.353082	1.109478	0.431078	2.326746	0.274105	
0.601563	0.732588	1.354898	1.103433	0.431009	2.353354	0.269427	
0.605769	0.718745	1.357693	1.093350	0.430907	2.398109	0.261858	
0.608642	0.705271	1.360265	1.083321	0.430832	2.443499	0.254551	
0.610108	0.696915	1.361814	1.077017	0.430790	2.472555	0.250053	
0.612981	0.677473	1.365298	1.062130	0.430712	2.543053	0.239684	
0.617188	0.641477	1.371470	1.033895	0.430609	2.685113	0.220864	
0.621394	0.597611	1.378616	0.998461	0.430557	2.881859	0.198613	
0.624267	0.564354	1.383856	0.970934	0.430549	3.051620	0.182268	
0.625733	0.546771	1.386546	0.956147	0.430561	3.149844	0.173814	
0.628606	0.511803	1.391756	0.926285	0.430608	3.365416	0.157401	
0.632813	0.461336	1.398796	0.882065	0.430732	3.734650	0.134685	
0.637019	0.414197	1.404571	0.839481	0.430913	4.161431	0.114554	
0.639892	0.384876	1.407494	0.812287	0.431060	4.479992	0.102591	
0.641358	0.370937	1.408635	0.799153	0.431137	4.649175	0.097059	
0.644231	0.345707	1.410113	0.774997	0.431292	4.990259	0.087311	
0.648438	0.313735	1.410452	0.743581	0.431513	5.501619	0.075465	
0.652644	0.287316	1.408746	0.716805	0.431706	6.010191	0.066121	
0.655517	0.272162	1.406544	0.701036	0.431818	6.346490	0.060952	
0.656983	0.265241	1.405152	0.693719	0.431866	6.512809	0.058638	
0.659856	0.253137	1.401974	0.680718	0.431944	6.825478	0.054666	
0.664063	0.238491	1.396539	0.664587	0.432020	7.245877	0.049986	
0.668269	0.226933	1.390592	0.651466	0.432051	7.615493	0.046395	
0.671142	0.220518	1.386460	0.643999	0.432052	7.837031	0.044442	
0.672608	0.217645	1.384372	0.640603	0.432046	7.940393	0.043576	
0.675481	0.212707	1.380384	0.634679	0.432027	8.124347	0.042103	
0.679688	0.206903	1.374927	0.627549	0.431982	8.351407	0.040393	
0.683894	0.202481	1.370068	0.621962	0.431925	8.532672	0.039108	
0.686767	0.200102	1.367142	0.618886	0.431883	8.633252	0.038423	
0.688233	0.199058	1.365774	0.617516	0.431861	8.678092	0.038123	
0.691106	0.197300	1.363340	0.615178	0.431818	8.754568	0.037621	
0.695313	0.195303	1.360339	0.612466	0.431760	8.842887	0.037054	
0.699519	0.193847	1.357948	0.610439	0.431709	8.908239	0.036643	
0.702392	0.193095	1.356626	0.609369	0.431680	8.942340	0.036431	
0.703858	0.192773	1.356038	0.608905	0.431666	8.956995	0.036340	
0.706731	0.192244	1.355038	0.608136	0.431643	8.981142	0.036192	
0.710938	0.191669	1.353894	0.607282	0.431615	9.007528	0.036031	
0.715144	0.191271	1.353061	0.606680	0.431593	9.025810	0.035920	
0.718017	0.191074	1.352634	0.606378	0.431582	9.034839	0.035865	
0.719483	0.190993	1.352453	0.606252	0.431577	9.038594	0.035842	
0.722356	0.190863	1.352158	0.606050	0.431570	9.044599	0.035806	
0.726563	0.190729	1.351839	0.605841	0.431565	9.050868	0.035768	
0.730769	0.190642	1.351622	0.605707	0.431566	9.054991	0.035744	
0.733642	0.190603	1.351519	0.605646	0.431569	9.056929	0.035733	
0.735108	0.190587	1.351478	0.605623	0.431570	9.057705	0.035728	
0.737981	0.190563	1.351419	0.605588	0.431572	9.058890	0.035721	
0.742188	0.190540	1.351373	0.605558	0.431575	9.060020	0.035715	
0.746394	0.190528	1.351360	0.605546	0.431578	9.060689	0.035711	
0.749267	0.190523	1.351360	0.605546	0.431582	9.061003	0.035710	
0.750733	0.190522	1.351361	0.605549	0.431586	9.061137	0.035709	
0.753606	0.190521	1.351361	0.605557	0.431594	9.061371	0.035708	
0.757813	0.190522	1.351364	0.605574	0.431610	9.061640	0.035708	
0.762019	0.190525	1.351376	0.605593	0.431624	9.061793	0.035708	
0.764892	0.190527	1.351397	0.605607	0.431630	9.061815	0.035709	
0.766358	0.190528	1.351412	0.605614	0.431632	9.061804	0.035709	
0.769231	0.190530	1.351448	0.605628	0.431634	9.061758	0.035709	
0.773438	0.190533	1.351504	0.605650	0.431640	9.061718	0.035710	
0.777644	0.190537	1.351546	0.605679	0.431653	9.061809	0.035711	
0.780517	0.190541	1.351560	0.605701	0.431669	9.061962	0.035711	
0.781983	0.190543	1.351564	0.605713	0.431678	9.062054	0.035711	
0.784856	0.190548	1.351570	0.605737	0.431696	9.062224	0.035712	
0.789063	0.190554	1.351596	0.605768	0.431716	9.062347	0.035713	
0.793269	0.190558	1.351661	0.605795	0.431722	9.062269	0.035714	
0.796142	0.190560	1.351726	0.605813	0.431721	9.062156	0.035714	
0.797608	0.190561	1.351760	0.605822	0.431721	9.062111	0.035714	
0.800481	0.190563	1.351821	0.605844	0.431725	9.062105	0.035715	
0.804688	0.190567	1.351869	0.605885	0.431749	9.062386	0.035715	
0.808894	0.190575	1.351864	0.605933	0.431792	9.062938	0.035715	
0.811767	0.190581	1.351853	0.605966	0.431822	9.063283	0.035716	
0.813233	0.190584	1.351856	0.605980	0.431833	9.063393	0.035716	
0.816106	0.190588	1.351889	0.606004	0.431845	9.063436	0.035717	
0.820313	0.190590	1.352000	0.606030	0.431839	9.063193	0.035718	
0.824519	0.190590	1.352148	0.606052	0.431824	9.062888	0.035718	
0.827392	0.190590	1.352228	0.606071	0.431823	9.062864	0.035718	
0.828858	0.190590	1.352254	0.606083	0.431828	9.062967	0.035718	
0.831731	0.190593	1.352234	0.606114	0.431861	9.063533	0.035718	
0.835938	0.190600	1.352097	0.606155	0.431931	9.064639	0.035717	
0.840144	0.190605	1.351946	0.606157	0.431967	9.065186	0.035717	
0.843017	0.190600	1.351903	0.606117	0.431943	9.064895	0.035716	
0.844483	0.190595	1.351901	0.606081	0.431911	9.064483	0.035716	
0.847356	0.190580	1.351882	0.605988	0.431838	9.063672	0.035715	
0.851563	0.190542	1.351663	0.605765	0.431705	9.062659	0.035710	
0.855769	0.190484	1.351043	0.605362	0.431516	9.061471	0.035701	
0.858642	0.190422	1.350241	0.604931	0.431346	9.060835	0.035691	
0.860108	0.190383	1.349549	0.604645	0.431275	9.061206	0.035683	
0.862981	0.190299	1.347707	0.603883	0.431062	9.060727	0.035668	
0.867188	0.190027	1.343808	0.601788	0.430210	9.055753	0.035627	
0.871394	0.189520	1.337463	0.597847	0.428340	9.040522	0.035562	
0.874267	0.188922	1.329815	0.593372	0.426326	9.026480	0.035477	
0.875733	0.188632	1.324254	0.590832	0.425434	9.021453	0.035433	
0.878606	0.187231	1.307027	0.580478	0.420553	8.984674	0.035241	
0.882813	0.184267	1.265661	0.557903	0.410315	8.906961	0.034834	
0.887019	0.177720	1.162918	0.506987	0.386815	8.706157	0.033982	
0.889892	0.168486	1.014782	0.434908	0.348156	8.265495	0.033064	
0.891358	0.162128	0.894564	0.383886	0.319015	7.870705	0.032604	
0.894231	0.142755	0.491611	0.238423	0.221172	6.197249	0.032353	
0.898438	0.127143	0.067116	0.116920	0.116633	3.669375	0.037447	
0.902644	0.125525	0.015816	0.103602	0.103587	3.300917	0.038980	
0.905517	0.126139	0.030258	0.106665	0.106608	3.380650	0.038706	
0.906983	0.124603	-0.007936	0.099089	0.099085	3.180845	0.039417	
0.909856	0.124966	-0.000801	0.099810	0.099810	3.194769	0.039446	
0.914063	0.125097	0.002478	0.100508	0.100508	3.213748	0.039370	
0.918269	0.124948	-0.000958	0.099873	0.099873	3.197275	0.039424	
0.921142	0.125038	0.000484	0.100023	0.100023	3.199760	0.039438	
0.922608	0.125045	0.001158	0.100232	0.100232	3.206256	0.039400	
0.925481	0.124984	-0.000259	0.099969	0.099969	3.199393	0.039423	
0.929688	0.125006	0.000103	0.100015	0.100015	3.200306	0.039424	
0.933894	0.124999	0.000020	0.100007	0.100007	3.200253	0.039422	
0.936767	0.124995	-0.000113	0.099982	0.099982	3.199534	0.039425	
0.938233	0.125004	0.000065	0.100007	0.100007	3.200139	0.039424	
0.941106	0.125000	0.000012	0.100003	0.100003	3.200101	0.039423	
0.945313	0.125000	-0.000005	0.099999	0.099999	3.199975	0.039424	
0.949519	0.125000	0.000006	0.100001	0.100001	3.200024	0.039424	
0.952392	0.125000	-0.000002	0.100000	0.100000	3.200009	0.039424	
0.953858	0.125000	-0.000003	0.099999	0.099999	3.199980	0.039424	
0.956731	0.125000	0.000001	0.100000	0.100000	3.200006	0.039424	
0.960938	0.125000	-0.000000	0.100000	0.100000	3.200000	0.039424	
0.965144	0.125000	0.000000	0.100000	0.100000	3.200000	0.039424	
0.968017	0.125000	0.000000	0.100000	0.100000	3.200002	0.039424	
0.969483	0.125000	-0.000000	0.100000	0.100000	3.200000	0.039424	
0.972356	0.125000	-0.000000	0.100000	0.100000	3.200000	0.039424	
0.976563	0.125000	0.000000	0.100000	0.100000	3.200000	0.039424	
0.980769	0.125000	-0.000000	0.100000	0.100000	3.200000	0.039424	
0.983642	0.125000	0.000000	0.100000	0.100000	3.200000	0.039424	
0.985108	0.125000	0.000000	0.100000	0.100000	3.200000	0.039424	
0.987981	0.125000	-0.000000	0.100000	0.100000	3.200000	0.039424	
0.992188	0.125000	0.000000	0.100000	0.100000	3.200000	0.039424	
0.996394	0.125000	0.000000	0.100000	0.100000	3.200000	0.039424	
0.999267	0.125000	-0.000000	0.100000	0.100000	3.200000	0.039424	
