TITLE = "ARKv2"
VARIABLES = "x" "Density" "Velocity in x" "Energy" "Pressure" "Temperature" "Fugacity"
ZONE T = "Final Time 0.10"
I = 80, J = 1, K = 1, F = POINT

0.002932	1.000000	0.750001	1.281251	1.000001	4.000002	0.282095	
0.014423	1.000000	0.750000	1.281251	1.000001	4.000002	0.282095	
0.031250	1.000000	0.750001	1.281251	1.000000	4.000001	0.282095	
0.048077	1.000000	0.750001	1.281251	1.000000	4.000001	0.282095	
0.059568	1.000000	0.749999	1.281251	1.000002	4.000005	0.282095	
0.065432	1.000000	0.750000	1.281251	1.000001	4.000002	0.282095	
0.076923	1.000000	0.750001	1.281250	0.999999	3.999996	0.282095	
0.093750	1.000000	0.750000	1.281251	1.000001	4.000003	0.282095	
0.110577	1.000001	0.749998	1.281251	1.000002	4.000006	0.282095	
0.122068	0.999998	0.750006	1.281246	0.999992	3.999977	0.282095	
0.127932	0.999997	0.750007	1.281247	0.999993	3.999981	0.282095	
0.139423	1.000002	0.749993	1.281255	1.000009	4.000026	0.282095	
0.156250	1.000001	0.749998	1.281250	1.000001	4.000000	0.282095	
0.173077	0.999992	0.750022	1.281238	0.999974	3.999928	0.282095	
0.184568	1.000005	0.749982	1.281265	1.000027	4.000090	0.282093	
0.190432	1.000023	0.749938	1.281285	1.000075	4.000210	0.282094	
0.201923	1.000000	0.750006	1.281243	0.999988	3.999953	0.282096	
0.218750	0.999970	0.750075	1.281203	0.999905	3.999742	0.282095	
0.235577	1.000045	0.749864	1.281348	1.000187	4.000566	0.282088	
0.247068	1.000113	0.749754	1.281390	1.000293	4.000720	0.282101	
0.252932	1.000025	0.749983	1.281226	0.999981	3.999827	0.282108	
0.264423	0.999845	0.750367	1.281010	0.999528	3.998733	0.282096	
0.281250	0.999830	0.750483	1.280948	0.999384	3.998217	0.282110	
0.298077	0.998387	0.754256	1.278300	0.994308	3.983658	0.282217	
0.309568	0.994546	0.764265	1.271921	0.981464	3.947385	0.282420	
0.315432	0.991162	0.772915	1.266725	0.970666	3.917286	0.282538	
0.326923	0.981641	0.796765	1.253218	0.941628	3.836954	0.282738	
0.343750	0.961805	0.845886	1.228377	0.884280	3.677588	0.282963	
0.360577	0.936734	0.907386	1.202011	0.816382	3.486078	0.283056	
0.372068	0.917963	0.953466	1.185262	0.768003	3.346553	0.283108	
0.377932	0.907885	0.978105	1.177265	0.742983	3.273467	0.283108	
0.389423	0.887572	1.027521	1.163050	0.694500	3.129888	0.283051	
0.406250	0.857165	1.101621	1.146027	0.625912	2.920850	0.282966	
0.423077	0.826804	1.175626	1.133539	0.562178	2.719765	0.282854	
0.434568	0.806682	1.224418	1.127407	0.522719	2.591946	0.282693	
0.440432	0.796969	1.247874	1.124987	0.504471	2.531951	0.282578	
0.451923	0.779844	1.289142	1.121528	0.473521	2.428800	0.282317	
0.468750	0.762406	1.330715	1.119098	0.444063	2.329801	0.281807	
0.485577	0.755806	1.345768	1.118494	0.434077	2.297291	0.281337	
0.497068	0.754837	1.347609	1.118329	0.432918	2.294101	0.281172	
0.502932	0.754244	1.348980	1.118192	0.431926	2.290645	0.281163	
0.514423	0.752888	1.352028	1.117929	0.429797	2.283459	0.281099	
0.531250	0.753218	1.351560	1.118343	0.430385	2.285578	0.281092	
0.548077	0.754203	1.347475	1.117998	0.433299	2.298048	0.280694	
0.559568	0.752202	1.349880	1.116781	0.431460	2.294384	0.280173	
0.565432	0.751503	1.352249	1.116984	0.429893	2.288178	0.280292	
0.576923	0.748944	1.353092	1.114850	0.429244	2.292530	0.279072	
0.593750	0.752263	1.349373	1.118021	0.433158	2.303226	0.279657	
0.610577	0.689335	1.362187	1.070973	0.431424	2.503421	0.245804	
0.622068	0.586703	1.382845	0.988918	0.427954	2.917689	0.193787	
0.627932	0.518409	1.394279	0.931453	0.427555	3.298978	0.161030	
0.639423	0.390164	1.409269	0.816990	0.429550	4.403788	0.104896	
0.656250	0.269318	1.401253	0.698684	0.434279	6.450047	0.059829	
0.673077	0.216497	1.376396	0.639592	0.434519	8.028185	0.043109	
0.684568	0.202338	1.367840	0.621445	0.432159	8.543295	0.039056	
0.690432	0.197435	1.365238	0.615298	0.431301	8.738079	0.037683	
0.701923	0.192840	1.361607	0.608763	0.430003	8.919363	0.036430	
0.718750	0.190466	1.360201	0.605089	0.428894	9.007278	0.035805	
0.735577	0.190229	1.356789	0.605076	0.429982	9.041354	0.035693	
0.747068	0.190432	1.349360	0.606269	0.432902	9.093075	0.035629	
0.752932	0.190566	1.344306	0.606792	0.434600	9.122292	0.035597	
0.764423	0.191182	1.338807	0.607302	0.435964	9.121417	0.035714	
0.781250	0.191034	1.347021	0.606521	0.433209	9.070849	0.035786	
0.798077	0.189757	1.361328	0.604186	0.428356	9.029556	0.035628	
0.809568	0.189794	1.357884	0.604838	0.429862	9.059560	0.035576	
0.815432	0.190947	1.344537	0.604669	0.432074	9.051159	0.035809	
0.826923	0.191665	1.368846	0.608314	0.428749	8.947903	0.036150	
0.843750	0.187652	1.352543	0.599164	0.427521	9.113075	0.035071	
0.860577	0.193375	1.317241	0.610476	0.442712	9.157569	0.036053	
0.872068	0.194110	1.366511	0.605525	0.424288	8.743244	0.037037	
0.877932	0.193956	1.355041	0.622549	0.444485	9.166736	0.036143	
0.889423	0.156926	0.901433	0.383456	0.319698	8.149027	0.031015	
0.906250	0.124861	-0.033675	0.085258	0.085187	2.729027	0.042643	
0.923077	0.125998	0.028539	0.108208	0.108156	3.433598	0.038363	
0.934568	0.130521	0.124428	0.122672	0.121662	3.728496	0.038136	
0.940432	0.119282	-0.139162	0.078820	0.077665	2.604434	0.041701	
0.951923	0.125364	0.008804	0.101326	0.101321	3.232867	0.039337	
0.968750	0.125291	0.007581	0.100868	0.100864	3.220168	0.039392	
0.985577	0.124353	-0.011496	0.098251	0.098243	3.160131	0.039467	
0.997068	0.125987	0.021715	0.102034	0.102004	3.238553	0.039498	
