TITLE = "ARKv2"
VARIABLES = "x" "Density" "Velocity in x" "Energy" "Pressure" "Temperature" "Fugacity"
ZONE T = "Final Time 0.10"
I = 160, J = 1, K = 1, F = POINT

0.001466	1.000000	0.750000	1.281250	1.000000	4.000000	0.282095	
0.007211	1.000000	0.750000	1.281250	1.000000	4.000000	0.282095	
0.015625	1.000000	0.750000	1.281250	1.000000	4.000000	0.282095	
0.024039	1.000000	0.750000	1.281250	1.000000	4.000000	0.282095	
0.029784	1.000000	0.750000	1.281250	1.000000	4.000000	0.282095	
0.032716	1.000000	0.750000	1.281250	1.000000	4.000000	0.282095	
0.038461	1.000000	0.750000	1.281250	1.000000	4.000000	0.282095	
0.046875	1.000000	0.750000	1.281250	1.000000	4.000000	0.282095	
0.055289	1.000000	0.750000	1.281250	1.000000	4.000000	0.282095	
0.061034	1.000000	0.750000	1.281250	1.000000	4.000000	0.282095	
0.063966	1.000000	0.750000	1.281250	1.000000	4.000000	0.282095	
0.069711	1.000000	0.750000	1.281250	1.000000	4.000000	0.282095	
0.078125	1.000000	0.750000	1.281250	1.000000	4.000000	0.282095	
0.086539	1.000000	0.750000	1.281250	1.000000	4.000000	0.282095	
0.092284	1.000000	0.750000	1.281250	1.000000	4.000000	0.282095	
0.095216	1.000000	0.750000	1.281250	1.000000	4.000000	0.282095	
0.100961	1.000000	0.750000	1.281250	1.000000	4.000000	0.282095	
0.109375	1.000000	0.750000	1.281250	1.000000	4.000000	0.282095	
0.117789	1.000000	0.750000	1.281250	1.000000	4.000000	0.282095	
0.123534	1.000000	0.750000	1.281250	1.000000	4.000000	0.282095	
0.126466	1.000000	0.750000	1.281250	1.000000	4.000000	0.282095	
0.132211	1.000000	0.750000	1.281250	1.000000	4.000000	0.282095	
0.140625	1.000000	0.750000	1.281250	1.000000	4.000000	0.282095	
0.149039	1.000000	0.750000	1.281250	1.000000	4.000000	0.282095	
0.154784	1.000000	0.750000	1.281250	1.000000	4.000000	0.282095	
0.157716	1.000000	0.750000	1.281250	1.000000	4.000000	0.282095	
0.163461	1.000000	0.750000	1.281250	1.000000	4.000000	0.282095	
0.171875	1.000000	0.750000	1.281250	1.000000	4.000000	0.282095	
0.180289	1.000000	0.750000	1.281250	1.000000	4.000000	0.282095	
0.186034	1.000000	0.750000	1.281250	1.000000	4.000000	0.282095	
0.188966	1.000000	0.750000	1.281250	1.000000	4.000000	0.282095	
0.194711	1.000000	0.750000	1.281250	1.000000	4.000000	0.282095	
0.203125	1.000000	0.750000	1.281250	1.000000	4.000000	0.282095	
0.211539	1.000000	0.750000	1.281250	1.000000	4.000000	0.282095	
0.217284	1.000000	0.750000	1.281250	1.000000	4.000000	0.282095	
0.220216	1.000000	0.750000	1.281250	1.000000	4.000000	0.282095	
0.225961	1.000000	0.750000	1.281250	1.000000	4.000000	0.282095	
0.234375	1.000000	0.750000	1.281250	1.000000	4.000000	0.282095	
0.242789	1.000000	0.750000	1.281250	1.000000	3.999999	0.282095	
0.248534	1.000000	0.750001	1.281249	0.999999	3.999997	0.282095	
0.251466	1.000000	0.750001	1.281249	0.999999	3.999996	0.282095	
0.257211	0.999998	0.750006	1.281245	0.999991	3.999975	0.282095	
0.265625	0.999989	0.750033	1.281225	0.999954	3.999861	0.282097	
0.274039	0.999940	0.750167	1.281128	0.999770	3.999320	0.282102	
0.279784	0.999843	0.750430	1.280940	0.999412	3.998275	0.282111	
0.282716	0.999751	0.750677	1.280768	0.999080	3.997315	0.282119	
0.288461	0.999441	0.751508	1.280195	0.997971	3.994118	0.282145	
0.296875	0.998405	0.754236	1.278372	0.994389	3.983911	0.282213	
0.305289	0.996217	0.759916	1.274717	0.987073	3.963285	0.282326	
0.311034	0.993770	0.766182	1.270825	0.979136	3.941101	0.282424	
0.313966	0.992178	0.770233	1.268372	0.974063	3.926965	0.282479	
0.319711	0.988333	0.779962	1.262644	0.962023	3.893519	0.282590	
0.328125	0.980965	0.798425	1.252310	0.939636	3.831476	0.282745	
0.336539	0.971668	0.821533	1.240216	0.912319	3.755683	0.282877	
0.342284	0.964366	0.839594	1.231340	0.891441	3.697523	0.282951	
0.345216	0.960375	0.849436	1.226702	0.880226	3.666178	0.282982	
0.350961	0.952108	0.869776	1.217534	0.857394	3.602088	0.283031	
0.359375	0.939109	0.901679	1.204229	0.822469	3.503192	0.283080	
0.367789	0.925275	0.935546	1.191451	0.786529	3.400196	0.283103	
0.373534	0.915462	0.959532	1.183186	0.761753	3.328385	0.283106	
0.376466	0.910363	0.971987	1.179140	0.749103	3.291450	0.283104	
0.382211	0.900223	0.996740	1.171580	0.724399	3.218752	0.283094	
0.390625	0.885104	1.033615	1.161446	0.688642	3.112139	0.283067	
0.399039	0.869784	1.070946	1.152481	0.653692	3.006226	0.283026	
0.404784	0.859272	1.096544	1.147039	0.630441	2.934767	0.282989	
0.407716	0.853910	1.109596	1.144474	0.618805	2.898690	0.282967	
0.413461	0.843435	1.135084	1.139857	0.596510	2.828955	0.282920	
0.421875	0.828276	1.171936	1.134050	0.565259	2.729810	0.282835	
0.430289	0.813536	1.207721	1.129326	0.536018	2.635498	0.282729	
0.436034	0.803867	1.231160	1.126688	0.517455	2.574829	0.282641	
0.438966	0.799106	1.242689	1.125516	0.508497	2.545328	0.282591	
0.444711	0.790201	1.264209	1.123541	0.492082	2.490920	0.282477	
0.453125	0.778513	1.292349	1.121360	0.471237	2.421213	0.282276	
0.461539	0.768935	1.315245	1.119909	0.454830	2.366024	0.282036	
0.467284	0.763849	1.327294	1.119263	0.446423	2.337758	0.281859	
0.470216	0.761731	1.332273	1.119020	0.443002	2.326294	0.281770	
0.475961	0.758496	1.339804	1.118682	0.437903	2.309325	0.281602	
0.484375	0.755630	1.346322	1.118413	0.433592	2.295265	0.281396	
0.492789	0.754329	1.349137	1.118293	0.431790	2.289665	0.281255	
0.498534	0.753919	1.349948	1.118241	0.431286	2.288232	0.281190	
0.501466	0.753786	1.350185	1.118219	0.431144	2.287886	0.281161	
0.507211	0.753621	1.350426	1.118179	0.431009	2.287672	0.281113	
0.515625	0.753487	1.350512	1.118118	0.430983	2.287937	0.281047	
0.524039	0.753378	1.350528	1.118046	0.430993	2.288323	0.280982	
0.529784	0.753278	1.350578	1.117986	0.430973	2.288520	0.280933	
0.532716	0.753222	1.350601	1.117953	0.430968	2.288665	0.280903	
0.538461	0.753139	1.350568	1.117889	0.431013	2.289154	0.280843	
0.546875	0.753000	1.350507	1.117768	0.431081	2.289941	0.280742	
0.555289	0.752788	1.350572	1.117617	0.431057	2.290457	0.280632	
0.561034	0.752597	1.350650	1.117497	0.431033	2.290909	0.280533	
0.563966	0.752498	1.350606	1.117414	0.431084	2.291486	0.280460	
0.569711	0.752366	1.350494	1.117292	0.431197	2.292485	0.280350	
0.578125	0.751609	1.350690	1.116753	0.431150	2.294546	0.279942	
0.586539	0.749809	1.351199	1.115545	0.431068	2.299617	0.278964	
0.592284	0.746774	1.351778	1.113438	0.431146	2.309379	0.277247	
0.595216	0.744058	1.352263	1.111538	0.431240	2.318314	0.275706	
0.600961	0.734302	1.354437	1.104608	0.431070	2.348189	0.270354	
0.609375	0.701318	1.361275	1.080475	0.430679	2.456400	0.252459	
0.617789	0.635482	1.372441	1.029105	0.430610	2.710442	0.217775	
0.623534	0.572965	1.382414	0.978142	0.430654	3.006494	0.186433	
0.626466	0.537816	1.387663	0.948545	0.430734	3.203582	0.169528	
0.632211	0.468137	1.397839	0.888098	0.430739	3.680445	0.137673	
0.640625	0.377671	1.408364	0.805491	0.430938	4.564171	0.099737	
0.649039	0.309404	1.410684	0.739264	0.431403	5.577215	0.073917	
0.654784	0.275811	1.406889	0.704831	0.431869	6.263259	0.062178	
0.657716	0.261907	1.404192	0.690209	0.432000	6.597771	0.057527	
0.663461	0.240358	1.396859	0.666709	0.432214	7.192826	0.050563	
0.671875	0.219026	1.385061	0.642255	0.432165	7.892481	0.043986	
0.680289	0.206150	1.374411	0.626562	0.431853	8.379392	0.040179	
0.686034	0.200601	1.368474	0.619481	0.431647	8.607098	0.038577	
0.688966	0.198510	1.365806	0.616735	0.431582	8.696439	0.037978	
0.694711	0.195494	1.361309	0.612705	0.431564	8.830211	0.037117	
0.703125	0.192909	1.356229	0.609147	0.431733	8.952083	0.036376	
0.711539	0.191629	1.352939	0.607296	0.431913	9.015605	0.036007	
0.717284	0.191154	1.351858	0.606547	0.431878	9.037254	0.035875	
0.720216	0.190989	1.351622	0.606265	0.431807	9.043589	0.035831	
0.725961	0.190757	1.351666	0.605845	0.431589	9.050029	0.035775	
0.734375	0.190562	1.352240	0.605484	0.431258	9.052337	0.035734	
0.742789	0.190483	1.352493	0.605393	0.431173	9.054290	0.035715	
0.748534	0.190487	1.352055	0.605478	0.431368	9.058228	0.035708	
0.751466	0.190504	1.351637	0.605556	0.431538	9.060992	0.035706	
0.757211	0.190553	1.350680	0.605718	0.431901	9.066247	0.035705	
0.765625	0.190603	1.349963	0.605819	0.432142	9.068914	0.035709	
0.774039	0.190588	1.350730	0.605714	0.431853	9.063610	0.035717	
0.779784	0.190543	1.351810	0.605597	0.431499	9.058306	0.035719	
0.782716	0.190520	1.352316	0.605550	0.431342	9.056086	0.035719	
0.788461	0.190483	1.353146	0.605498	0.431110	9.052973	0.035718	
0.796875	0.190486	1.353253	0.605626	0.431208	9.054876	0.035715	
0.805289	0.190567	1.351760	0.605992	0.431885	9.065282	0.035709	
0.811034	0.190648	1.350172	0.606296	0.432524	9.074793	0.035706	
0.813966	0.190702	1.349119	0.606410	0.432860	9.079330	0.035707	
0.819711	0.190732	1.349676	0.606293	0.432571	9.071817	0.035727	
0.828125	0.190608	1.352442	0.605994	0.431674	9.058886	0.035730	
0.836539	0.190511	1.353248	0.605931	0.431492	9.059706	0.035710	
0.842284	0.190465	1.355058	0.605439	0.430574	9.042565	0.035735	
0.845216	0.190381	1.355000	0.605242	0.430470	9.044374	0.035716	
0.850961	0.190689	1.353352	0.606405	0.431775	9.057158	0.035748	
0.859375	0.190132	1.349433	0.604702	0.431590	9.079807	0.035599	
0.867789	0.190270	1.335845	0.601378	0.431611	9.073672	0.035637	
0.873534	0.190286	1.321463	0.595780	0.429635	9.031370	0.035724	
0.876466	0.188072	1.316969	0.581035	0.417938	8.888900	0.035590	
0.882211	0.185512	1.307707	0.578712	0.420090	9.057952	0.034776	
0.890625	0.161881	0.894039	0.381846	0.317150	7.836599	0.032626	
0.899039	0.129224	0.099750	0.124788	0.124145	3.842764	0.037192	
0.904784	0.117829	-0.150179	0.075642	0.074314	2.522763	0.041854	
0.907716	0.128720	0.075631	0.112224	0.111856	3.475947	0.038952	
0.913461	0.126164	0.026658	0.105561	0.105516	3.345377	0.038917	
0.921875	0.124127	-0.017434	0.097138	0.097119	3.129668	0.039586	
0.930289	0.125684	0.012097	0.101785	0.101776	3.239104	0.039400	
0.936034	0.124746	-0.001299	0.100218	0.100217	3.213488	0.039261	
0.938966	0.124430	-0.012424	0.097944	0.097934	3.148234	0.039566	
0.944711	0.125213	0.003601	0.100504	0.100503	3.210639	0.039426	
0.953125	0.124934	-0.000885	0.099899	0.099899	3.198435	0.039413	
0.961539	0.125008	-0.000161	0.099950	0.099950	3.198192	0.039437	
0.967284	0.125076	0.001669	0.100248	0.100248	3.205987	0.039411	
0.970216	0.124949	-0.000835	0.099920	0.099920	3.198745	0.039415	
0.975961	0.124996	-0.000152	0.099963	0.099963	3.198902	0.039430	
0.984375	0.125005	0.000121	0.100022	0.100022	3.200584	0.039422	
0.992789	0.124995	-0.000109	0.099985	0.099985	3.199652	0.039425	
0.998534	0.125004	0.000067	0.099999	0.099999	3.199871	0.039426	
