TITLE = "DG1DBEX64-P3RK4w1000iv80"
VARIABLES = "x" "Density" "Velocity in x" "Energy" "Pressure" "Temperature" "Fugacity"
ZONE T = "Final Time 0.10"
I = 256, J = 1, K = 1, F = POINT

0.001085	1.263374	-0.000000	1.119718	1.119718	3.996104	0.282716	
0.005156	1.263374	-0.000000	1.119718	1.119718	3.996104	0.282716	
0.010469	1.263374	-0.000000	1.119718	1.119718	3.996104	0.282716	
0.014540	1.263374	-0.000000	1.119718	1.119718	3.996104	0.282716	
0.016710	1.263374	-0.000000	1.119718	1.119718	3.996104	0.282716	
0.020781	1.263374	-0.000000	1.119718	1.119718	3.996104	0.282716	
0.026094	1.263374	-0.000000	1.119718	1.119718	3.996104	0.282716	
0.030165	1.263374	-0.000000	1.119718	1.119718	3.996104	0.282716	
0.032335	1.263374	-0.000000	1.119718	1.119718	3.996104	0.282716	
0.036406	1.263374	-0.000000	1.119718	1.119718	3.996104	0.282716	
0.041719	1.263374	-0.000000	1.119718	1.119718	3.996104	0.282716	
0.045790	1.263374	-0.000000	1.119718	1.119718	3.996104	0.282716	
0.047960	1.263374	-0.000000	1.119718	1.119718	3.996104	0.282716	
0.052031	1.263374	-0.000000	1.119718	1.119718	3.996104	0.282716	
0.057344	1.263374	-0.000000	1.119718	1.119718	3.996104	0.282716	
0.061415	1.263374	-0.000000	1.119718	1.119718	3.996104	0.282716	
0.063585	1.263374	-0.000000	1.119718	1.119718	3.996104	0.282716	
0.067656	1.263374	-0.000000	1.119718	1.119718	3.996104	0.282716	
0.072969	1.263374	-0.000000	1.119718	1.119718	3.996104	0.282716	
0.077040	1.263374	-0.000000	1.119718	1.119718	3.996104	0.282716	
0.079210	1.263374	-0.000000	1.119718	1.119718	3.996104	0.282716	
0.083281	1.263374	-0.000000	1.119718	1.119718	3.996104	0.282716	
0.088594	1.263374	-0.000000	1.119718	1.119718	3.996104	0.282716	
0.092665	1.263374	-0.000000	1.119718	1.119718	3.996104	0.282716	
0.094835	1.263374	-0.000000	1.119718	1.119718	3.996104	0.282716	
0.098906	1.263374	-0.000000	1.119718	1.119718	3.996104	0.282716	
0.104219	1.263374	-0.000000	1.119718	1.119718	3.996104	0.282716	
0.108290	1.263374	-0.000000	1.119718	1.119718	3.996104	0.282716	
0.110460	1.263374	-0.000000	1.119718	1.119718	3.996104	0.282716	
0.114531	1.263374	0.000000	1.119718	1.119718	3.996104	0.282716	
0.119844	1.263374	-0.000000	1.119718	1.119718	3.996104	0.282716	
0.123915	1.263374	-0.000000	1.119718	1.119718	3.996104	0.282716	
0.126085	1.263374	0.000000	1.119718	1.119718	3.996104	0.282716	
0.130156	1.263374	0.000000	1.119718	1.119718	3.996104	0.282716	
0.135469	1.263374	-0.000000	1.119718	1.119718	3.996104	0.282716	
0.139540	1.263374	-0.000000	1.119718	1.119718	3.996104	0.282716	
0.141710	1.263374	0.000000	1.119718	1.119718	3.996104	0.282716	
0.145781	1.263374	0.000000	1.119718	1.119718	3.996104	0.282716	
0.151094	1.263374	-0.000000	1.119718	1.119718	3.996104	0.282716	
0.155165	1.263374	0.000000	1.119718	1.119718	3.996104	0.282716	
0.157335	1.263374	0.000000	1.119718	1.119718	3.996104	0.282716	
0.161406	1.263374	-0.000000	1.119718	1.119718	3.996104	0.282716	
0.166719	1.263374	-0.000000	1.119718	1.119718	3.996104	0.282716	
0.170790	1.263374	0.000000	1.119718	1.119718	3.996104	0.282716	
0.172960	1.263374	0.000000	1.119718	1.119718	3.996104	0.282716	
0.177031	1.263374	-0.000000	1.119719	1.119719	3.996104	0.282716	
0.182344	1.263374	-0.000000	1.119718	1.119718	3.996104	0.282716	
0.186415	1.263374	0.000000	1.119718	1.119718	3.996103	0.282716	
0.188585	1.263374	0.000001	1.119718	1.119718	3.996102	0.282716	
0.192656	1.263375	-0.000001	1.119720	1.119720	3.996107	0.282716	
0.197969	1.263373	0.000003	1.119713	1.119713	3.996097	0.282716	
0.202040	1.263366	0.000016	1.119694	1.119694	3.996048	0.282716	
0.204210	1.263366	0.000016	1.119697	1.119697	3.996051	0.282716	
0.208281	1.263357	0.000035	1.119654	1.119654	3.995993	0.282716	
0.213594	1.263235	0.000281	1.119283	1.119283	3.995225	0.282716	
0.217665	1.263005	0.000745	1.118537	1.118536	3.993225	0.282731	
0.219835	1.262809	0.001105	1.117948	1.117947	3.991446	0.282746	
0.223906	1.262317	0.002086	1.116423	1.116420	3.987791	0.282761	
0.229219	1.261291	0.004103	1.113317	1.113307	3.979688	0.282807	
0.233290	1.260120	0.006387	1.109799	1.109774	3.971224	0.282837	
0.235460	1.259324	0.007923	1.107457	1.107417	3.965128	0.282867	
0.239531	1.257467	0.011494	1.102072	1.101989	3.951834	0.282912	
0.244844	1.254245	0.017643	1.092945	1.092750	3.928942	0.282988	
0.248915	1.251096	0.023611	1.084248	1.083899	3.907116	0.283048	
0.251085	1.249169	0.027246	1.079011	1.078547	3.893503	0.283094	
0.255156	1.245072	0.034942	1.068087	1.067327	3.865905	0.283154	
0.260469	1.238810	0.046645	1.051856	1.050508	3.824515	0.283230	
0.264540	1.233322	0.056842	1.038063	1.036071	3.788650	0.283290	
0.266710	1.230175	0.062681	1.030308	1.027891	3.768314	0.283320	
0.270781	1.223861	0.074351	1.015069	1.011686	3.728218	0.283366	
0.276094	1.214899	0.090863	0.994145	0.989130	3.672321	0.283411	
0.280165	1.207531	0.104398	0.977527	0.970947	3.626928	0.283441	
0.282335	1.203446	0.111882	0.968529	0.960996	3.601937	0.283456	
0.286406	1.195491	0.126446	0.951460	0.941903	3.553995	0.283471	
0.291719	1.184598	0.146382	0.928844	0.916153	3.488581	0.283501	
0.295790	1.175843	0.162345	0.911377	0.895882	3.436737	0.283517	
0.297960	1.171042	0.171070	0.902095	0.884960	3.408729	0.283517	
0.302031	1.161948	0.187662	0.884884	0.864424	3.355535	0.283532	
0.307344	1.149863	0.209747	0.862915	0.837622	3.285656	0.283547	
0.311415	1.140414	0.226985	0.846492	0.817114	3.231875	0.283547	
0.313585	1.135302	0.236274	0.837873	0.806184	3.202970	0.283547	
0.317656	1.125617	0.253894	0.822015	0.785735	3.148553	0.283547	
0.322969	1.112780	0.277223	0.801998	0.759237	3.077566	0.283532	
0.327040	1.102811	0.295316	0.787177	0.739088	3.023081	0.283517	
0.329210	1.097458	0.305031	0.779477	0.728421	2.993803	0.283517	
0.333281	1.087357	0.323390	0.765427	0.708568	2.939348	0.283501	
0.338594	1.074051	0.347553	0.747863	0.682994	2.868239	0.283486	
0.342665	1.063768	0.366221	0.735010	0.663675	2.813961	0.283471	
0.344835	1.058262	0.376215	0.728385	0.653493	2.785286	0.283456	
0.348906	1.047889	0.395046	0.716355	0.634587	2.731322	0.283441	
0.354219	1.034278	0.419750	0.701475	0.610360	2.661550	0.283411	
0.358290	1.023791	0.438766	0.690689	0.592141	2.608559	0.283381	
0.360460	1.018186	0.448925	0.685154	0.582555	2.580423	0.283366	
0.364531	1.007642	0.468021	0.675166	0.564808	2.527944	0.283335	
0.369844	0.993850	0.493000	0.662928	0.542151	2.460217	0.283290	
0.373915	0.983262	0.512184	0.654141	0.525170	2.408728	0.283260	
0.376085	0.977618	0.522417	0.649668	0.516263	2.381800	0.283230	
0.380156	0.967022	0.541625	0.641674	0.499833	2.331083	0.283199	
0.385469	0.953198	0.566676	0.631975	0.478928	2.265834	0.283154	
0.389540	0.942615	0.585847	0.625097	0.463337	2.216702	0.283109	
0.391710	0.936983	0.596044	0.621615	0.455175	2.190590	0.283094	
0.395781	0.926436	0.615133	0.615447	0.440171	2.142717	0.283033	
0.401094	0.912747	0.639907	0.608086	0.421209	2.080993	0.282973	
0.405165	0.902332	0.658755	0.602944	0.407156	2.034599	0.282927	
0.407335	0.896819	0.668735	0.600383	0.399852	2.010359	0.282897	
0.411406	0.886554	0.687305	0.595897	0.386498	1.965671	0.282837	
0.416719	0.873372	0.711139	0.590653	0.369813	1.909209	0.282746	
0.420790	0.863483	0.729003	0.587079	0.357632	1.867486	0.282671	
0.422960	0.858310	0.738342	0.585333	0.351380	1.845677	0.282641	
0.427031	0.848821	0.755448	0.582338	0.340126	1.806568	0.282550	
0.432344	0.836991	0.776728	0.578967	0.326486	1.758476	0.282429	
0.436415	0.828474	0.792011	0.576787	0.316944	1.724509	0.282323	
0.438585	0.824172	0.799710	0.575762	0.312218	1.707574	0.282263	
0.442656	0.816645	0.813142	0.574096	0.304113	1.678585	0.282127	
0.447969	0.808065	0.828346	0.572388	0.295159	1.646182	0.281946	
0.452040	0.802609	0.837924	0.571416	0.289653	1.626465	0.281780	
0.454210	0.800126	0.842238	0.570998	0.287207	1.617518	0.281704	
0.458281	0.796297	0.848831	0.570416	0.283545	1.604476	0.281538	
0.463594	0.792860	0.854595	0.569912	0.280386	1.593260	0.281357	
0.467665	0.791243	0.857150	0.569709	0.279043	1.588933	0.281206	
0.469835	0.790600	0.858118	0.569643	0.278557	1.587436	0.281130	
0.473906	0.789753	0.859346	0.569559	0.277952	1.585550	0.281024	
0.479219	0.789129	0.860086	0.569500	0.277622	1.584775	0.280903	
0.483290	0.788849	0.860294	0.569473	0.277557	1.584950	0.280813	
0.485460	0.788741	0.860330	0.569459	0.277559	1.585165	0.280768	
0.489531	0.788587	0.860343	0.569448	0.277596	1.585627	0.280692	
0.494844	0.788393	0.860295	0.569425	0.277677	1.586363	0.280586	
0.498915	0.788225	0.860236	0.569392	0.277746	1.586988	0.280496	
0.501085	0.788131	0.860198	0.569372	0.277787	1.587259	0.280450	
0.505156	0.787953	0.860114	0.569321	0.277859	1.588062	0.280345	
0.510469	0.787686	0.860004	0.569246	0.277957	1.588941	0.280209	
0.514540	0.787442	0.859931	0.569180	0.278031	1.589913	0.280073	
0.516710	0.787295	0.859898	0.569142	0.278070	1.590188	0.280012	
0.520781	0.786985	0.859848	0.569061	0.278138	1.591112	0.279861	
0.526094	0.786498	0.859811	0.568936	0.278216	1.592414	0.279635	
0.530165	0.786040	0.859803	0.568817	0.278272	1.593610	0.279423	
0.532335	0.785764	0.859807	0.568745	0.278300	1.594240	0.279302	
0.536406	0.785089	0.859841	0.568561	0.278343	1.595437	0.279030	
0.541719	0.783911	0.859924	0.568226	0.278387	1.597872	0.278532	
0.545790	0.782443	0.860093	0.567810	0.278399	1.600450	0.277943	
0.547960	0.781358	0.860244	0.567516	0.278405	1.602179	0.277520	
0.552031	0.778079	0.860730	0.566602	0.278380	1.607716	0.276221	
0.557344	0.769933	0.861967	0.564399	0.278374	1.622129	0.272958	
0.561415	0.757414	0.863808	0.560921	0.278344	1.644658	0.267944	
0.563585	0.747315	0.865254	0.558048	0.278303	1.663217	0.263896	
0.567656	0.720186	0.868958	0.550185	0.278283	1.716490	0.252915	
0.572969	0.663854	0.876310	0.533050	0.278157	1.840667	0.229910	
0.577040	0.607082	0.883291	0.514991	0.278167	1.991223	0.206407	
0.579210	0.573145	0.887416	0.503851	0.278172	2.095524	0.192299	
0.583281	0.507165	0.895222	0.481441	0.278214	2.340039	0.164824	
0.588594	0.425861	0.903981	0.452407	0.278404	2.749473	0.131246	
0.592665	0.371523	0.908972	0.432020	0.278538	3.124654	0.109299	
0.594835	0.346485	0.910457	0.422266	0.278659	3.339072	0.099375	
0.598906	0.306173	0.911650	0.406055	0.278824	3.757126	0.083787	
0.604219	0.265853	0.909713	0.389028	0.279022	4.305724	0.068743	
0.608290	0.242773	0.905907	0.378753	0.279135	4.701507	0.060451	
0.610460	0.232742	0.903373	0.374147	0.279178	4.900213	0.056916	
0.614531	0.217471	0.897771	0.366881	0.279241	5.233979	0.051660	
0.619844	0.203009	0.890043	0.359689	0.279280	5.598573	0.046796	
0.623915	0.195143	0.884337	0.355584	0.279277	5.817362	0.044213	
0.626085	0.191811	0.881544	0.353795	0.279265	5.916898	0.043126	
0.630156	0.186904	0.876791	0.351084	0.279242	6.064816	0.041555	
0.635469	0.182479	0.871782	0.348540	0.279198	6.210274	0.040135	
0.639540	0.180210	0.868779	0.347179	0.279170	6.283394	0.039425	
0.641710	0.179286	0.867444	0.346611	0.279159	6.318346	0.039123	
0.645781	0.177989	0.865456	0.345800	0.279142	6.362974	0.038715	
0.651094	0.176898	0.863671	0.345103	0.279127	6.397593	0.038383	
0.655165	0.176382	0.862840	0.344767	0.279109	6.417380	0.038217	
0.657335	0.176187	0.862512	0.344653	0.279117	6.424055	0.038156	
0.661406	0.175933	0.862006	0.344501	0.279138	6.436878	0.038066	
0.666719	0.175753	0.861769	0.344381	0.279120	6.439529	0.038020	
0.670790	0.175720	0.861826	0.344396	0.279139	6.442304	0.038005	
0.672960	0.175727	0.861834	0.344424	0.279163	6.442839	0.038005	
0.677031	0.175758	0.861778	0.344406	0.279142	6.439893	0.038020	
0.682344	0.175766	0.861942	0.344428	0.279136	6.440428	0.038020	
0.686415	0.175760	0.862169	0.344445	0.279120	6.440013	0.038020	
0.688585	0.175763	0.862194	0.344465	0.279135	6.440228	0.038020	
0.692656	0.175771	0.862204	0.344509	0.279175	6.440850	0.038020	
0.697969	0.175787	0.862174	0.344577	0.279242	6.441964	0.038020	
0.702040	0.175795	0.862203	0.344618	0.279276	6.442574	0.038020	
0.704210	0.175796	0.862262	0.344632	0.279280	6.442643	0.038020	
0.708281	0.175794	0.862408	0.344649	0.279275	6.442534	0.038020	
0.713594	0.175794	0.862597	0.344681	0.279279	6.442511	0.038020	
0.717665	0.175800	0.862659	0.344726	0.279312	6.442973	0.038020	
0.719835	0.175809	0.862634	0.344761	0.279348	6.443608	0.038020	
0.723906	0.175861	0.862478	0.344816	0.279408	6.442119	0.038035	
0.729219	0.175885	0.862517	0.344894	0.279471	6.443893	0.038035	
0.733290	0.175882	0.862800	0.344928	0.279463	6.443678	0.038035	
0.735460	0.175883	0.862919	0.344954	0.279470	6.443764	0.038035	
0.739531	0.175887	0.863105	0.345005	0.279492	6.444025	0.038035	
0.744844	0.175900	0.863190	0.345092	0.279561	6.445022	0.038035	
0.748915	0.175918	0.863155	0.345173	0.279640	6.446312	0.038035	
0.751085	0.175926	0.863165	0.345212	0.279675	6.446932	0.038035	
0.755156	0.175934	0.863341	0.345272	0.279705	6.447486	0.038035	
0.760469	0.175935	0.863743	0.345345	0.279716	6.447595	0.038035	
0.764540	0.175939	0.864012	0.345416	0.279745	6.447877	0.038035	
0.766710	0.175946	0.864100	0.345461	0.279775	6.448352	0.038035	
0.770781	0.175962	0.864210	0.345565	0.279856	6.449575	0.038035	
0.776094	0.175993	0.864262	0.345725	0.279996	6.451807	0.038035	
0.780165	0.176017	0.864414	0.345849	0.280088	6.453607	0.038035	
0.782335	0.176018	0.864768	0.345900	0.280085	6.453688	0.038035	
0.786406	0.176025	0.865379	0.346030	0.280119	6.454156	0.038035	
0.791719	0.176071	0.866187	0.346352	0.280301	6.457536	0.038035	
0.795790	0.176096	0.866438	0.346491	0.280392	6.459402	0.038035	
0.797960	0.176090	0.866459	0.346479	0.280379	6.458972	0.038035	
0.802031	0.175982	0.864811	0.346002	0.280194	6.456264	0.038020	
0.807344	0.175725	0.860309	0.344573	0.279544	6.453243	0.037975	
0.811415	0.175261	0.854154	0.341979	0.278045	6.434990	0.037930	
0.813585	0.174651	0.848944	0.339308	0.276372	6.416537	0.037854	
0.817656	0.173536	0.833224	0.333549	0.273309	6.387107	0.037703	
0.822969	0.169520	0.775636	0.313622	0.262630	6.279597	0.037159	
0.827040	0.162235	0.666238	0.274929	0.238923	5.968631	0.036495	
0.829210	0.156391	0.567070	0.242850	0.217705	5.641879	0.036193	
0.833281	0.139717	0.256561	0.159421	0.154823	4.491380	0.036238	
0.838594	0.128990	0.010767	0.104206	0.104198	3.278359	0.039078	
0.842665	0.128408	-0.003695	0.100709	0.100708	3.182705	0.039470	
0.844835	0.129652	0.020413	0.104856	0.104829	3.280738	0.039259	
0.848906	0.128622	0.001119	0.101828	0.101828	3.210977	0.039365	
0.854219	0.128534	-0.002130	0.101109	0.101108	3.191457	0.039455	
0.858290	0.128735	0.001786	0.101706	0.101706	3.206502	0.039425	
0.860460	0.128640	0.000689	0.101639	0.101639	3.206813	0.039395	
0.864531	0.128601	-0.000388	0.101419	0.101419	3.199835	0.039425	
0.869844	0.128632	0.000125	0.101486	0.101486	3.201375	0.039425	
0.873915	0.128627	0.000093	0.101491	0.101491	3.201122	0.039425	
0.876085	0.128615	-0.000148	0.101453	0.101453	3.200533	0.039425	
0.880156	0.128625	0.000017	0.101474	0.101474	3.201023	0.039425	
0.885469	0.128624	0.000005	0.101474	0.101474	3.200961	0.039425	
0.889540	0.128622	-0.000019	0.101470	0.101470	3.200898	0.039425	
0.891710	0.128624	0.000005	0.101473	0.101473	3.200979	0.039425	
0.895781	0.128624	0.000003	0.101473	0.101473	3.200961	0.039425	
0.901094	0.128623	-0.000002	0.101472	0.101472	3.200949	0.039425	
0.905165	0.128624	0.000001	0.101473	0.101473	3.200957	0.039425	
0.907335	0.128624	0.000001	0.101473	0.101473	3.200957	0.039425	
0.911406	0.128624	-0.000000	0.101473	0.101473	3.200953	0.039425	
0.916719	0.128624	0.000000	0.101473	0.101473	3.200955	0.039425	
0.920790	0.128624	0.000000	0.101473	0.101473	3.200955	0.039425	
0.922960	0.128624	-0.000000	0.101473	0.101473	3.200954	0.039425	
0.927031	0.128624	0.000000	0.101473	0.101473	3.200954	0.039425	
0.932344	0.128624	0.000000	0.101473	0.101473	3.200954	0.039425	
0.936415	0.128624	-0.000000	0.101473	0.101473	3.200954	0.039425	
0.938585	0.128624	0.000000	0.101473	0.101473	3.200954	0.039425	
0.942656	0.128624	0.000000	0.101473	0.101473	3.200954	0.039425	
0.947969	0.128624	-0.000000	0.101473	0.101473	3.200954	0.039425	
0.952040	0.128624	0.000000	0.101473	0.101473	3.200954	0.039425	
0.954210	0.128624	0.000000	0.101473	0.101473	3.200954	0.039425	
0.958281	0.128624	-0.000000	0.101473	0.101473	3.200954	0.039425	
0.963594	0.128624	0.000000	0.101473	0.101473	3.200954	0.039425	
0.967665	0.128624	0.000000	0.101473	0.101473	3.200954	0.039425	
0.969835	0.128624	-0.000000	0.101473	0.101473	3.200954	0.039425	
0.973906	0.128624	-0.000000	0.101473	0.101473	3.200954	0.039425	
0.979219	0.128624	0.000000	0.101473	0.101473	3.200954	0.039425	
0.983290	0.128624	-0.000000	0.101473	0.101473	3.200954	0.039425	
0.985460	0.128624	-0.000000	0.101473	0.101473	3.200954	0.039425	
0.989531	0.128624	0.000000	0.101473	0.101473	3.200954	0.039425	
0.994844	0.128624	0.000000	0.101473	0.101473	3.200954	0.039425	
0.998915	0.128624	0.000000	0.101473	0.101473	3.200954	0.039425	
