TITLE = "DG1DBEX16-P4RK4w10000iv80"
VARIABLES = "x" "Density" "Velocity in x" "Energy" "Pressure" "Temperature" "Fugacity"
ZONE T = "Final Time 0.10"
I = 80, J = 1, K = 1, F = POINT

0.002932	1.351273	-0.000228	1.154043	1.154043	3.887680	0.301129	
0.014423	1.351122	0.000026	1.153657	1.153657	3.886812	0.301129	
0.031250	1.351036	0.000171	1.153437	1.153437	3.886317	0.301129	
0.048077	1.351374	-0.000395	1.154304	1.154303	3.888264	0.301129	
0.059568	1.351158	-0.000033	1.153749	1.153749	3.887021	0.301129	
0.065432	1.350701	0.000732	1.152582	1.152582	3.884391	0.301129	
0.076923	1.351010	0.000215	1.153371	1.153371	3.886170	0.301129	
0.093750	1.351624	-0.000813	1.154946	1.154945	3.889703	0.301129	
0.110577	1.350614	0.000880	1.152354	1.152353	3.883888	0.301129	
0.122068	1.350133	0.001678	1.151141	1.151139	3.881125	0.301129	
0.127932	1.351580	-0.000734	1.154821	1.154821	3.889450	0.301129	
0.139423	1.352444	-0.002185	1.157052	1.157049	3.894420	0.301129	
0.156250	1.350209	0.001557	1.151317	1.151315	3.881562	0.301129	
0.173077	1.349775	0.002280	1.150228	1.150225	3.879064	0.301129	
0.184568	1.354538	-0.005678	1.162412	1.162390	3.906489	0.301129	
0.190432	1.355118	-0.006669	1.163977	1.163947	3.909838	0.301129	
0.201923	1.350764	0.000614	1.152734	1.152734	3.884753	0.301129	
0.218750	1.347143	0.006707	1.143535	1.143505	3.863954	0.301129	
0.235577	1.355431	-0.007147	1.164760	1.164725	3.911641	0.301129	
0.247068	1.358882	-0.012690	1.173092	1.172982	3.929544	0.301189	
0.252932	1.353918	-0.004911	1.160853	1.160836	3.902917	0.301129	
0.264423	1.337362	0.022972	1.119115	1.118762	3.808050	0.301129	
0.281250	1.300499	0.084869	1.033466	1.028782	3.601011	0.301129	
0.298077	1.258345	0.155391	0.947144	0.931952	3.371349	0.301129	
0.309568	1.229881	0.204051	0.894529	0.868924	3.216370	0.301280	
0.315432	1.214580	0.229972	0.868790	0.836672	3.136020	0.301310	
0.326923	1.183366	0.281018	0.821810	0.775084	2.981554	0.301129	
0.343750	1.137066	0.358613	0.760740	0.687625	2.752807	0.301129	
0.360577	1.088955	0.438844	0.708838	0.603981	2.524783	0.301129	
0.372068	1.055459	0.494570	0.678876	0.549793	2.371233	0.301159	
0.377932	1.038808	0.522760	0.665477	0.523535	2.294319	0.301295	
0.389423	1.005561	0.578738	0.643968	0.475568	2.152886	0.301129	
0.406250	0.957031	0.660151	0.619209	0.410673	1.953145	0.300947	
0.423077	0.907289	0.744613	0.599794	0.348271	1.747646	0.301461	
0.434568	0.867285	0.810846	0.589559	0.304452	1.598177	0.301370	
0.440432	0.848355	0.841439	0.586180	0.285854	1.533751	0.301023	
0.451923	0.837999	0.861114	0.585588	0.274893	1.493424	0.301265	
0.468750	0.835314	0.856148	0.584948	0.278810	1.517335	0.298682	
0.485577	0.822672	0.882877	0.582248	0.261624	1.447181	0.300630	
0.497068	0.798247	0.930520	0.580833	0.235245	1.342312	0.302367	
0.502932	0.807105	0.917237	0.581948	0.242430	1.368360	0.302700	
0.514423	0.837349	0.872750	0.588778	0.269876	1.468636	0.303032	
0.531250	0.829915	0.848431	0.581679	0.282978	1.547180	0.294951	
0.548077	0.849476	0.858848	0.591000	0.277705	1.490912	0.304633	
0.559568	0.872186	0.859938	0.596266	0.273778	1.439584	0.315025	
0.565432	0.840824	0.870755	0.589912	0.271150	1.470159	0.303878	
0.576923	0.769866	0.849551	0.557883	0.280062	1.631607	0.272309	
0.593750	0.383267	0.853766	0.423266	0.283582	3.088479	0.113075	
0.610577	0.135328	0.888989	0.326641	0.273166	8.155056	0.026239	
0.622068	0.138844	0.831326	0.328198	0.280221	8.148297	0.026918	
0.627932	0.175892	0.843469	0.343082	0.280514	6.465516	0.037975	
0.639423	0.186777	0.852336	0.346143	0.278298	6.052033	0.041570	
0.656250	0.169023	0.878242	0.337361	0.272177	6.528374	0.036359	
0.673077	0.181096	0.842846	0.347565	0.283241	6.345379	0.039425	
0.684568	0.182900	0.859056	0.349648	0.282159	6.263221	0.040059	
0.690432	0.171836	0.856984	0.345557	0.282457	6.661995	0.036585	
0.701923	0.176111	0.859030	0.349396	0.284417	6.551066	0.037779	
0.718750	0.182066	0.865431	0.345191	0.277010	6.172603	0.040165	
0.735577	0.168061	0.845214	0.332496	0.272466	6.571475	0.036042	
0.747068	0.168377	0.821332	0.332349	0.275557	6.630403	0.035951	
0.752932	0.181384	0.827550	0.333024	0.270914	6.060580	0.040377	
0.764423	0.183856	0.868909	0.338526	0.269121	5.944070	0.041298	
0.781250	0.166344	0.825884	0.333955	0.277224	6.753484	0.035211	
0.798077	0.179374	0.789820	0.329071	0.273123	6.176458	0.039576	
0.809568	0.185641	0.878001	0.326572	0.255018	5.582645	0.042975	
0.815432	0.184346	0.865463	0.365147	0.296107	6.518473	0.039591	
0.826923	0.149968	0.589812	0.249367	0.223281	6.027625	0.033640	
0.843750	0.127476	-0.078501	0.076255	0.075863	2.418839	0.044772	
0.860577	0.132959	0.073591	0.121645	0.121285	3.700488	0.037945	
0.872068	0.137611	0.119329	0.115512	0.114532	3.378103	0.041011	
0.877932	0.117408	-0.234665	0.072070	0.068838	2.380670	0.041661	
0.889423	0.130727	0.035518	0.108120	0.108038	3.353945	0.039153	
0.906250	0.129786	0.003827	0.102014	0.102013	3.190777	0.039833	
0.923077	0.127947	-0.019517	0.098964	0.098940	3.137623	0.039606	
0.934568	0.131897	0.038183	0.107088	0.106992	3.292846	0.039848	
0.940432	0.129392	0.002711	0.102413	0.102413	3.211377	0.039591	
0.951923	0.128514	-0.012582	0.099870	0.099860	3.153114	0.039682	
0.968750	0.129738	0.007911	0.102746	0.102742	3.213459	0.039682	
0.985577	0.128998	-0.003631	0.100994	0.100993	3.176866	0.039682	
0.997068	0.129033	-0.001835	0.101076	0.101076	3.178592	0.039682	
