TITLE = "DG1DMBX32-P4RK3w10iv20"
VARIABLES = "x" "Density" "Velocity in x" "Energy" "Pressure" "Temperature" "Fugacity"
ZONE T = "Final Time 0.10"
I = 160, J = 1, K = 1, F = POINT

0.001466	0.999974	-0.000000	0.999444	0.999444	3.997879	0.282162	
0.007211	0.999974	-0.000000	0.999444	0.999444	3.997879	0.282162	
0.015625	0.999974	0.000000	0.999444	0.999444	3.997879	0.282162	
0.024039	0.999974	-0.000000	0.999444	0.999444	3.997879	0.282162	
0.029784	0.999974	0.000000	0.999444	0.999444	3.997879	0.282162	
0.032716	0.999974	0.000000	0.999444	0.999444	3.997879	0.282162	
0.038461	0.999974	-0.000000	0.999444	0.999444	3.997879	0.282162	
0.046875	0.999974	-0.000000	0.999444	0.999444	3.997879	0.282162	
0.055289	0.999974	0.000000	0.999444	0.999444	3.997879	0.282162	
0.061034	0.999974	-0.000000	0.999444	0.999444	3.997879	0.282162	
0.063966	0.999974	-0.000000	0.999444	0.999444	3.997880	0.282162	
0.069711	0.999974	0.000000	0.999444	0.999444	3.997879	0.282162	
0.078125	0.999974	0.000000	0.999444	0.999444	3.997879	0.282162	
0.086539	0.999974	-0.000000	0.999444	0.999444	3.997880	0.282162	
0.092284	0.999974	0.000000	0.999444	0.999444	3.997879	0.282162	
0.095216	0.999974	0.000000	0.999444	0.999444	3.997879	0.282162	
0.100961	0.999974	-0.000000	0.999444	0.999444	3.997879	0.282162	
0.109375	0.999974	-0.000000	0.999444	0.999444	3.997880	0.282162	
0.117789	0.999974	0.000000	0.999444	0.999444	3.997879	0.282162	
0.123534	0.999974	-0.000000	0.999444	0.999444	3.997880	0.282162	
0.126466	0.999974	-0.000000	0.999444	0.999444	3.997880	0.282162	
0.132211	0.999974	-0.000000	0.999444	0.999444	3.997880	0.282162	
0.140625	0.999974	0.000000	0.999444	0.999444	3.997879	0.282162	
0.149039	0.999974	-0.000000	0.999444	0.999444	3.997880	0.282162	
0.154784	0.999974	-0.000000	0.999444	0.999444	3.997880	0.282162	
0.157716	0.999974	0.000000	0.999444	0.999444	3.997879	0.282162	
0.163461	0.999974	-0.000000	0.999444	0.999444	3.997879	0.282162	
0.171875	0.999974	-0.000000	0.999444	0.999444	3.997880	0.282162	
0.180289	0.999974	0.000000	0.999444	0.999444	3.997879	0.282162	
0.186034	0.999974	-0.000000	0.999445	0.999445	3.997881	0.282162	
0.188966	0.999975	-0.000001	0.999445	0.999445	3.997880	0.282162	
0.194711	0.999974	0.000000	0.999443	0.999443	3.997876	0.282162	
0.203125	0.999974	-0.000000	0.999445	0.999445	3.997884	0.282162	
0.211539	0.999975	-0.000002	0.999446	0.999446	3.997883	0.282162	
0.217284	0.999974	0.000004	0.999434	0.999434	3.997841	0.282164	
0.220216	0.999972	0.000006	0.999436	0.999436	3.997854	0.282163	
0.225961	0.999975	-0.000006	0.999459	0.999459	3.997933	0.282161	
0.234375	0.999976	-0.000002	0.999440	0.999440	3.997859	0.282163	
0.242789	0.999968	0.000022	0.999407	0.999407	3.997756	0.282165	
0.248534	0.999977	-0.000022	0.999508	0.999508	3.998123	0.282154	
0.251466	0.999992	-0.000065	0.999566	0.999566	3.998296	0.282153	
0.257211	0.999973	0.000017	0.999390	0.999390	3.997667	0.282170	
0.265625	0.999956	0.000060	0.999343	0.999343	3.997549	0.282169	
0.274039	1.000013	-0.000154	0.999756	0.999756	3.998969	0.282135	
0.279784	1.000004	-0.000073	0.999525	0.999525	3.998084	0.282164	
0.282716	0.999899	0.000285	0.998887	0.998887	3.995954	0.282209	
0.288461	0.999919	0.000189	0.999091	0.999091	3.996684	0.282189	
0.296875	1.000086	-0.000400	1.000208	1.000208	4.000489	0.282102	
0.305289	0.999912	0.000192	0.999154	0.999154	3.996971	0.282177	
0.311034	0.999659	0.001103	0.997322	0.997321	3.990646	0.282329	
0.313966	0.999950	0.000348	0.998267	0.998266	3.993267	0.282318	
0.319711	1.000121	-0.000215	0.999209	0.999209	3.996351	0.282258	
0.328125	0.999671	0.001062	0.997274	0.997274	3.990407	0.282341	
0.336539	0.999569	0.002018	0.994590	0.994588	3.980070	0.282678	
0.342284	1.000140	0.000878	0.995341	0.995340	3.980805	0.282814	
0.345216	0.999456	0.002425	0.993435	0.993432	3.975892	0.282795	
0.350961	0.998595	0.005170	0.988749	0.988736	3.960508	0.283099	
0.359375	0.998559	0.007109	0.983094	0.983068	3.937946	0.283899	
0.367789	0.997334	0.011340	0.975064	0.975000	3.910424	0.284547	
0.373534	0.994321	0.019470	0.963134	0.962946	3.873785	0.285026	
0.376466	0.994799	0.020784	0.958588	0.958373	3.853535	0.285911	
0.382211	0.993952	0.025551	0.948661	0.948336	3.816427	0.287053	
0.390625	0.988090	0.041651	0.925305	0.924448	3.742366	0.288170	
0.399039	0.981973	0.062328	0.894655	0.892747	3.636543	0.290523	
0.404784	0.979695	0.073811	0.875326	0.872658	3.562977	0.292826	
0.407716	0.973068	0.087211	0.861390	0.857689	3.525711	0.292378	
0.413461	0.962808	0.113629	0.831503	0.825288	3.428670	0.293361	
0.421875	0.950952	0.150394	0.788635	0.777881	3.272008	0.296604	
0.430289	0.929972	0.199015	0.744409	0.725993	3.122644	0.296916	
0.436034	0.906224	0.248398	0.708659	0.680701	3.004558	0.294965	
0.438966	0.904150	0.262767	0.694027	0.662813	2.932315	0.297893	
0.444711	0.887301	0.302315	0.666639	0.626091	2.822452	0.297977	
0.453125	0.843739	0.385137	0.626859	0.564283	2.675151	0.291044	
0.461539	0.808178	0.465410	0.593285	0.505757	2.503192	0.288194	
0.467284	0.789007	0.506366	0.579498	0.478345	2.425047	0.285855	
0.470216	0.752940	0.559528	0.571552	0.453690	2.410234	0.273625	
0.475961	0.717371	0.630021	0.559399	0.417027	2.325309	0.265417	
0.484375	0.680674	0.702878	0.550142	0.382002	2.244848	0.256313	
0.492789	0.607887	0.816177	0.547572	0.345101	2.270824	0.227592	
0.498534	0.561008	0.901409	0.546336	0.318416	2.270317	0.210063	
0.501466	0.569360	0.887746	0.546647	0.322293	2.264246	0.213477	
0.507211	0.522084	0.948201	0.545417	0.310718	2.380601	0.190907	
0.515625	0.447872	1.062147	0.542795	0.290160	2.591450	0.156967	
0.524039	0.408831	1.094338	0.533439	0.288636	2.824011	0.137257	
0.529784	0.371767	1.117424	0.521181	0.289080	3.110330	0.118930	
0.532716	0.335003	1.173357	0.513216	0.282605	3.374360	0.102891	
0.538461	0.314483	1.172073	0.499435	0.283424	3.604951	0.093449	
0.546875	0.277747	1.140374	0.466406	0.285808	4.116083	0.077238	
0.555289	0.234093	1.113790	0.428028	0.282828	4.832760	0.060078	
0.561034	0.217620	1.062565	0.402161	0.279310	5.133895	0.054188	
0.563966	0.215781	1.017303	0.388460	0.276803	5.131202	0.053744	
0.569711	0.192803	0.940657	0.354849	0.269550	5.592241	0.045999	
0.578125	0.173045	0.821871	0.313908	0.255465	5.905175	0.040176	
0.586539	0.162151	0.684670	0.273820	0.235814	5.817169	0.037930	
0.592284	0.152347	0.575235	0.245223	0.220017	5.776735	0.035762	
0.595216	0.145919	0.517510	0.231692	0.212153	5.815639	0.034138	
0.600961	0.143808	0.450163	0.212538	0.197966	5.506397	0.034576	
0.609375	0.137635	0.322318	0.180995	0.173846	5.052370	0.034547	
0.617789	0.131595	0.211451	0.155992	0.153050	4.652136	0.034422	
0.623534	0.130604	0.172288	0.144832	0.142893	4.376368	0.035223	
0.626466	0.130997	0.159373	0.139690	0.138026	4.214637	0.036000	
0.632211	0.127868	0.096712	0.126803	0.126205	3.947975	0.036308	
0.640625	0.126547	0.060931	0.117787	0.117552	3.715680	0.037039	
0.649039	0.126446	0.043419	0.111502	0.111383	3.523493	0.038005	
0.654784	0.125556	0.020955	0.106544	0.106517	3.393435	0.038454	
0.657716	0.124869	0.008443	0.104546	0.104542	3.348858	0.038497	
0.663461	0.125429	0.016997	0.105140	0.105122	3.352385	0.038650	
0.671875	0.125312	0.008878	0.102306	0.102301	3.265499	0.039124	
0.680289	0.124857	-0.001531	0.100294	0.100293	3.213062	0.039299	
0.686034	0.125028	0.002879	0.101198	0.101197	3.237589	0.039203	
0.688966	0.125316	0.008815	0.102120	0.102115	3.259437	0.039162	
0.694711	0.125061	0.001490	0.100273	0.100273	3.207167	0.039399	
0.703125	0.124889	-0.003195	0.099233	0.099232	3.178273	0.039523	
0.711539	0.125055	0.001528	0.100353	0.100352	3.209860	0.039381	
0.717284	0.125075	0.002270	0.100549	0.100549	3.215631	0.039352	
0.720216	0.124970	-0.000592	0.099911	0.099911	3.197944	0.039427	
0.725961	0.124961	-0.001231	0.099684	0.099684	3.190876	0.039468	
0.734375	0.125018	0.000483	0.100096	0.100096	3.202608	0.039414	
0.742789	0.125001	0.000134	0.100049	0.100049	3.201551	0.039415	
0.748534	0.124982	-0.000520	0.099874	0.099874	3.196407	0.039441	
0.751466	0.124997	-0.000172	0.099932	0.099932	3.197878	0.039436	
0.757211	0.125006	0.000171	0.100031	0.100031	3.200856	0.039420	
0.765625	0.124999	-0.000012	0.099999	0.099999	3.199999	0.039423	
0.774039	0.124999	-0.000045	0.099981	0.099981	3.199409	0.039427	
0.779784	0.125002	0.000051	0.100003	0.100003	3.200051	0.039424	
0.782716	0.125000	0.000032	0.100005	0.100005	3.200147	0.039423	
0.788461	0.124999	-0.000013	0.099993	0.099993	3.199812	0.039425	
0.796875	0.125000	-0.000001	0.099994	0.099994	3.199804	0.039425	
0.805289	0.125000	0.000004	0.099996	0.099996	3.199869	0.039425	
0.811034	0.125000	-0.000005	0.099994	0.099994	3.199834	0.039425	
0.813966	0.125000	-0.000002	0.099994	0.099994	3.199828	0.039425	
0.819711	0.125000	0.000002	0.099995	0.099995	3.199847	0.039425	
0.828125	0.125000	-0.000001	0.099995	0.099995	3.199837	0.039425	
0.836539	0.125000	0.000000	0.099995	0.099995	3.199843	0.039425	
0.842284	0.125000	0.000001	0.099995	0.099995	3.199849	0.039425	
0.845216	0.125000	-0.000000	0.099995	0.099995	3.199840	0.039425	
0.850961	0.125000	-0.000001	0.099995	0.099995	3.199837	0.039425	
0.859375	0.125000	0.000000	0.099995	0.099995	3.199844	0.039425	
0.867789	0.125000	-0.000000	0.099995	0.099995	3.199841	0.039425	
0.873534	0.125000	-0.000000	0.099995	0.099995	3.199838	0.039425	
0.876466	0.125000	-0.000000	0.099995	0.099995	3.199841	0.039425	
0.882211	0.125000	0.000000	0.099995	0.099995	3.199843	0.039425	
0.890625	0.125000	-0.000000	0.099995	0.099995	3.199840	0.039425	
0.899039	0.125000	-0.000000	0.099995	0.099995	3.199841	0.039425	
0.904784	0.125000	0.000000	0.099995	0.099995	3.199842	0.039425	
0.907716	0.125000	0.000000	0.099995	0.099995	3.199842	0.039425	
0.913461	0.125000	-0.000000	0.099995	0.099995	3.199841	0.039425	
0.921875	0.125000	0.000000	0.099995	0.099995	3.199842	0.039425	
0.930289	0.125000	0.000000	0.099995	0.099995	3.199841	0.039425	
0.936034	0.125000	-0.000000	0.099995	0.099995	3.199841	0.039425	
0.938966	0.125000	-0.000000	0.099995	0.099995	3.199841	0.039425	
0.944711	0.125000	0.000000	0.099995	0.099995	3.199841	0.039425	
0.953125	0.125000	-0.000000	0.099995	0.099995	3.199841	0.039425	
0.961539	0.125000	-0.000000	0.099995	0.099995	3.199841	0.039425	
0.967284	0.125000	0.000000	0.099995	0.099995	3.199841	0.039425	
0.970216	0.125000	0.000000	0.099995	0.099995	3.199841	0.039425	
0.975961	0.125000	-0.000000	0.099995	0.099995	3.199841	0.039425	
0.984375	0.125000	0.000000	0.099995	0.099995	3.199841	0.039425	
0.992789	0.125000	-0.000000	0.099995	0.099995	3.199841	0.039425	
0.998534	0.125000	-0.000000	0.099995	0.099995	3.199841	0.039425	
