TITLE = "DG1DFDX64-P3RK4w1000iv80"
VARIABLES = "x" "Density" "Velocity in x" "Energy" "Pressure" "Temperature" "Fugacity"
ZONE T = "Final Time 0.10"
I = 256, J = 1, K = 1, F = POINT

0.001085	0.836831	-0.000000	0.912841	0.912841	4.001832	0.281749	
0.005156	0.836831	-0.000000	0.912841	0.912841	4.001832	0.281749	
0.010469	0.836831	-0.000000	0.912841	0.912841	4.001832	0.281749	
0.014540	0.836831	-0.000000	0.912841	0.912841	4.001832	0.281749	
0.016710	0.836831	-0.000000	0.912841	0.912841	4.001832	0.281749	
0.020781	0.836831	-0.000000	0.912841	0.912841	4.001832	0.281749	
0.026094	0.836831	-0.000000	0.912841	0.912841	4.001832	0.281749	
0.030165	0.836831	-0.000000	0.912841	0.912841	4.001832	0.281749	
0.032335	0.836831	-0.000000	0.912841	0.912841	4.001832	0.281749	
0.036406	0.836831	-0.000000	0.912841	0.912841	4.001832	0.281749	
0.041719	0.836831	-0.000000	0.912841	0.912841	4.001832	0.281749	
0.045790	0.836831	-0.000000	0.912841	0.912841	4.001832	0.281749	
0.047960	0.836831	-0.000000	0.912841	0.912841	4.001832	0.281749	
0.052031	0.836831	-0.000000	0.912841	0.912841	4.001832	0.281749	
0.057344	0.836831	-0.000000	0.912841	0.912841	4.001832	0.281749	
0.061415	0.836831	-0.000000	0.912841	0.912841	4.001832	0.281749	
0.063585	0.836831	-0.000000	0.912841	0.912841	4.001832	0.281749	
0.067656	0.836831	-0.000000	0.912841	0.912841	4.001832	0.281749	
0.072969	0.836831	-0.000000	0.912841	0.912841	4.001832	0.281749	
0.077040	0.836831	-0.000000	0.912841	0.912841	4.001832	0.281749	
0.079210	0.836831	-0.000000	0.912841	0.912841	4.001832	0.281749	
0.083281	0.836831	-0.000000	0.912841	0.912841	4.001832	0.281749	
0.088594	0.836831	0.000000	0.912841	0.912841	4.001832	0.281749	
0.092665	0.836831	-0.000000	0.912841	0.912841	4.001832	0.281749	
0.094835	0.836831	-0.000000	0.912841	0.912841	4.001832	0.281749	
0.098906	0.836831	0.000000	0.912841	0.912841	4.001832	0.281749	
0.104219	0.836831	-0.000000	0.912841	0.912841	4.001832	0.281749	
0.108290	0.836831	-0.000000	0.912841	0.912841	4.001832	0.281749	
0.110460	0.836831	0.000000	0.912841	0.912841	4.001832	0.281749	
0.114531	0.836831	0.000000	0.912841	0.912841	4.001832	0.281749	
0.119844	0.836831	-0.000000	0.912841	0.912841	4.001832	0.281749	
0.123915	0.836831	-0.000000	0.912841	0.912841	4.001832	0.281749	
0.126085	0.836831	0.000000	0.912841	0.912841	4.001832	0.281749	
0.130156	0.836831	0.000000	0.912841	0.912841	4.001832	0.281749	
0.135469	0.836831	-0.000000	0.912841	0.912841	4.001832	0.281749	
0.139540	0.836831	-0.000000	0.912841	0.912841	4.001832	0.281749	
0.141710	0.836830	0.000000	0.912841	0.912841	4.001832	0.281749	
0.145781	0.836830	0.000000	0.912841	0.912841	4.001832	0.281749	
0.151094	0.836831	-0.000000	0.912841	0.912841	4.001832	0.281749	
0.155165	0.836831	-0.000000	0.912841	0.912841	4.001832	0.281749	
0.157335	0.836830	0.000000	0.912841	0.912841	4.001831	0.281749	
0.161406	0.836830	0.000000	0.912841	0.912841	4.001832	0.281749	
0.166719	0.836831	-0.000001	0.912842	0.912842	4.001835	0.281749	
0.170790	0.836830	0.000001	0.912839	0.912839	4.001830	0.281749	
0.172960	0.836828	0.000008	0.912832	0.912832	4.001806	0.281749	
0.177031	0.836828	0.000007	0.912834	0.912834	4.001813	0.281749	
0.182344	0.836819	0.000038	0.912795	0.912795	4.001726	0.281749	
0.186415	0.836779	0.000171	0.912643	0.912643	4.001342	0.281749	
0.188585	0.836730	0.000329	0.912459	0.912459	4.000512	0.281764	
0.192656	0.836596	0.000777	0.911946	0.911946	3.998869	0.281780	
0.197969	0.836276	0.001830	0.910733	0.910732	3.995088	0.281810	
0.202040	0.835875	0.003145	0.909235	0.909230	3.990538	0.281840	
0.204210	0.835585	0.004088	0.908169	0.908162	3.987045	0.281870	
0.208281	0.834866	0.006414	0.905556	0.905539	3.979111	0.281915	
0.213594	0.833515	0.010749	0.900747	0.900699	3.964097	0.282006	
0.217665	0.832105	0.015246	0.895834	0.895737	3.948919	0.282082	
0.219835	0.831207	0.018093	0.892753	0.892617	3.939342	0.282127	
0.223906	0.829231	0.024337	0.886080	0.885834	3.918513	0.282218	
0.229219	0.826074	0.034250	0.875678	0.875194	3.886283	0.282323	
0.233290	0.823209	0.043196	0.866476	0.865708	3.857282	0.282414	
0.235460	0.821533	0.048417	0.861186	0.860223	3.840557	0.282459	
0.239531	0.818113	0.059033	0.850596	0.849170	3.806938	0.282535	
0.244844	0.813159	0.074362	0.835672	0.833424	3.759275	0.282610	
0.248915	0.809016	0.087133	0.823563	0.820492	3.719730	0.282671	
0.251085	0.806698	0.094269	0.816926	0.813341	3.697786	0.282701	
0.255156	0.802164	0.108208	0.804212	0.799516	3.655674	0.282731	
0.260469	0.795920	0.127359	0.787255	0.780800	3.598020	0.282776	
0.264540	0.790913	0.142692	0.774095	0.766043	3.552249	0.282807	
0.266710	0.788159	0.151110	0.767040	0.758041	3.527555	0.282807	
0.270781	0.782858	0.167319	0.753758	0.742799	3.479953	0.282822	
0.276094	0.775748	0.189066	0.736517	0.722652	3.416411	0.282852	
0.280165	0.770181	0.206065	0.723539	0.707187	3.367553	0.282852	
0.282335	0.767176	0.215238	0.716701	0.698931	3.341331	0.282852	
0.286406	0.761469	0.232643	0.704037	0.683431	3.291508	0.282867	
0.291719	0.753904	0.255717	0.687934	0.663285	3.226716	0.282852	
0.295790	0.748023	0.273643	0.675910	0.647904	3.176571	0.282852	
0.297960	0.744863	0.283272	0.669625	0.639740	3.149795	0.282852	
0.302031	0.738892	0.301473	0.658098	0.624521	3.099773	0.282837	
0.307344	0.731023	0.325441	0.643553	0.604842	3.034373	0.282822	
0.311415	0.724940	0.343959	0.632815	0.589932	2.984625	0.282792	
0.313585	0.721683	0.353876	0.627236	0.582048	2.957862	0.282792	
0.317656	0.715542	0.372559	0.617050	0.567391	2.908260	0.282761	
0.322969	0.707481	0.397069	0.604309	0.548537	2.843618	0.282731	
0.327040	0.701274	0.415945	0.594976	0.534312	2.794443	0.282701	
0.329210	0.697958	0.426030	0.590155	0.526814	2.768323	0.282686	
0.333281	0.691720	0.445001	0.581396	0.512907	2.719547	0.282656	
0.338594	0.683558	0.469816	0.570525	0.495085	2.656468	0.282610	
0.342665	0.677290	0.488872	0.562618	0.481683	2.608444	0.282580	
0.344835	0.673947	0.499037	0.558554	0.474635	2.582991	0.282565	
0.348906	0.667670	0.518121	0.551214	0.461597	2.535782	0.282520	
0.354219	0.659479	0.543021	0.542175	0.444945	2.474611	0.282474	
0.358290	0.653206	0.562086	0.535661	0.432474	2.428416	0.282429	
0.360460	0.649867	0.572234	0.532332	0.425932	2.404086	0.282399	
0.364531	0.643612	0.591239	0.526354	0.413863	2.358666	0.282354	
0.369844	0.635485	0.615936	0.519075	0.398531	2.300304	0.282293	
0.373915	0.629292	0.634754	0.513886	0.387111	2.256498	0.282233	
0.376085	0.626008	0.644729	0.511257	0.381149	2.233414	0.282202	
0.380156	0.619884	0.663326	0.506574	0.370199	2.190720	0.282142	
0.385469	0.611992	0.687278	0.500949	0.356411	2.136256	0.282067	
0.389540	0.606042	0.705326	0.497007	0.346259	2.095861	0.281991	
0.391710	0.602916	0.714805	0.495035	0.341007	2.074856	0.281946	
0.395781	0.597148	0.732276	0.491572	0.331468	2.036266	0.281870	
0.401094	0.589873	0.754293	0.487526	0.319720	1.988389	0.281749	
0.405165	0.584542	0.770403	0.484784	0.311315	1.953844	0.281644	
0.407335	0.581808	0.778655	0.483449	0.307073	1.936309	0.281583	
0.411406	0.576917	0.793390	0.481181	0.299605	1.905266	0.281462	
0.416719	0.571101	0.810853	0.478687	0.290942	1.869239	0.281266	
0.420790	0.567167	0.822607	0.477128	0.285232	1.845247	0.281115	
0.422960	0.565279	0.828222	0.476417	0.282540	1.833974	0.281024	
0.427031	0.562175	0.837413	0.475305	0.278189	1.815864	0.280843	
0.432344	0.558989	0.846745	0.474245	0.273854	1.797782	0.280616	
0.436415	0.557207	0.851896	0.473694	0.271504	1.788123	0.280450	
0.438585	0.556463	0.854018	0.473474	0.270546	1.784321	0.280360	
0.442656	0.555407	0.856978	0.473180	0.269231	1.779009	0.280224	
0.447969	0.554591	0.859202	0.472963	0.268256	1.775233	0.280088	
0.452040	0.554229	0.860087	0.472875	0.267879	1.774047	0.279982	
0.454210	0.554073	0.860426	0.472841	0.267742	1.773695	0.279922	
0.458281	0.553873	0.860847	0.472813	0.267587	1.773220	0.279846	
0.463594	0.553717	0.861106	0.472797	0.267506	1.773348	0.279740	
0.467665	0.553634	0.861185	0.472786	0.267488	1.773459	0.279680	
0.469835	0.553597	0.861202	0.472785	0.267493	1.773707	0.279635	
0.473906	0.553531	0.861215	0.472775	0.267501	1.773930	0.279574	
0.479219	0.553441	0.861212	0.472770	0.267530	1.774489	0.279469	
0.483290	0.553368	0.861198	0.472762	0.267556	1.774986	0.279378	
0.485460	0.553327	0.861185	0.472752	0.267568	1.775207	0.279333	
0.489531	0.553249	0.861157	0.472736	0.267594	1.775678	0.279242	
0.494844	0.553139	0.861113	0.472710	0.267630	1.776273	0.279121	
0.498915	0.553048	0.861075	0.472691	0.267662	1.776821	0.279015	
0.501085	0.552996	0.861057	0.472680	0.267679	1.777134	0.278955	
0.505156	0.552890	0.861027	0.472659	0.267712	1.777750	0.278834	
0.510469	0.552731	0.861002	0.472631	0.267754	1.778678	0.278653	
0.514540	0.552587	0.860991	0.472602	0.267784	1.779379	0.278502	
0.516710	0.552501	0.860987	0.472584	0.267799	1.779803	0.278411	
0.520781	0.552316	0.860982	0.472539	0.267826	1.780563	0.278230	
0.526094	0.552020	0.860993	0.472462	0.267853	1.781917	0.277928	
0.530165	0.551724	0.861028	0.472385	0.267869	1.783111	0.277641	
0.532335	0.551532	0.861068	0.472338	0.267874	1.783837	0.277460	
0.536406	0.551022	0.861183	0.472207	0.267878	1.785786	0.276976	
0.541719	0.549995	0.861445	0.471954	0.267882	1.789666	0.276010	
0.545790	0.548549	0.861849	0.471595	0.267868	1.794847	0.274680	
0.547960	0.547415	0.862156	0.471315	0.267865	1.799121	0.273623	
0.552031	0.544145	0.863021	0.470487	0.267846	1.811232	0.270617	
0.557344	0.536247	0.865058	0.468446	0.267803	1.841268	0.263427	
0.561415	0.525763	0.867586	0.465617	0.267744	1.882228	0.254093	
0.563585	0.518082	0.869350	0.463480	0.267704	1.913467	0.247371	
0.567656	0.499170	0.873476	0.458088	0.267664	1.994462	0.231285	
0.572969	0.464783	0.880405	0.447723	0.267593	2.158344	0.203673	
0.577040	0.432463	0.886384	0.437504	0.267616	2.336394	0.179521	
0.579210	0.413693	0.889713	0.431365	0.267627	2.451864	0.166289	
0.583281	0.377368	0.895691	0.419054	0.267680	2.708058	0.142197	
0.588594	0.331506	0.902015	0.402682	0.267820	3.110937	0.114525	
0.592665	0.299618	0.905319	0.390704	0.267920	3.462095	0.097019	
0.594835	0.284347	0.906234	0.384757	0.267995	3.658810	0.089104	
0.598906	0.258958	0.906584	0.374530	0.268112	4.035026	0.076643	
0.604219	0.232305	0.904308	0.363238	0.268251	4.517812	0.064453	
0.608290	0.216330	0.900839	0.356105	0.268328	4.863869	0.057581	
0.610460	0.209215	0.898587	0.352827	0.268361	5.035660	0.054620	
0.614531	0.198123	0.893782	0.347547	0.268412	5.327828	0.050134	
0.619844	0.187317	0.887209	0.342164	0.268442	5.640848	0.045935	
0.623915	0.181283	0.882358	0.339001	0.268431	5.835615	0.043639	
0.626085	0.178701	0.879939	0.337609	0.268426	5.918555	0.042688	
0.630156	0.174832	0.875867	0.335456	0.268395	6.054148	0.041253	
0.635469	0.171290	0.871501	0.333402	0.268353	6.179862	0.039969	
0.639540	0.169446	0.868849	0.332296	0.268339	6.248058	0.039304	
0.641710	0.168690	0.867681	0.331835	0.268334	6.276711	0.039032	
0.645781	0.167617	0.865954	0.331174	0.268328	6.320304	0.038640	
0.651094	0.166701	0.864401	0.330577	0.268299	6.352557	0.038322	
0.655165	0.166261	0.863645	0.330281	0.268275	6.367911	0.038171	
0.657335	0.166094	0.863330	0.330174	0.268276	6.374756	0.038111	
0.661406	0.165875	0.862835	0.330043	0.268298	6.387486	0.038020	
0.666719	0.165721	0.862547	0.329949	0.268302	6.390483	0.037975	
0.670790	0.165695	0.862519	0.329966	0.268332	6.393399	0.037960	
0.672960	0.165702	0.862471	0.329988	0.268359	6.393996	0.037960	
0.677031	0.165732	0.862318	0.329967	0.268348	6.391311	0.037975	
0.682344	0.165740	0.862361	0.329981	0.268353	6.391978	0.037975	
0.686415	0.165737	0.862517	0.329993	0.268344	6.391706	0.037975	
0.688585	0.165740	0.862523	0.330010	0.268359	6.391935	0.037975	
0.692656	0.165746	0.862516	0.330042	0.268390	6.392438	0.037975	
0.697969	0.165756	0.862491	0.330084	0.268432	6.393174	0.037975	
0.702040	0.165759	0.862534	0.330104	0.268444	6.393430	0.037975	
0.704210	0.165758	0.862593	0.330107	0.268440	6.393349	0.037975	
0.708281	0.165755	0.862711	0.330110	0.268427	6.393089	0.037975	
0.713594	0.165754	0.862826	0.330127	0.268428	6.393017	0.037975	
0.717665	0.165760	0.862830	0.330159	0.268457	6.393476	0.037975	
0.719835	0.165765	0.862823	0.330180	0.268477	6.393841	0.037975	
0.723906	0.165770	0.862894	0.330212	0.268497	6.394240	0.037975	
0.729219	0.165770	0.863124	0.330243	0.268495	6.394233	0.037975	
0.733290	0.165767	0.863342	0.330264	0.268486	6.393997	0.037975	
0.735460	0.165768	0.863404	0.330283	0.268496	6.394098	0.037975	
0.739531	0.165776	0.863418	0.330328	0.268536	6.394696	0.037975	
0.744844	0.165791	0.863329	0.330393	0.268607	6.395906	0.037975	
0.748915	0.165801	0.863312	0.330431	0.268645	6.396629	0.037975	
0.751085	0.165803	0.863373	0.330444	0.268649	6.396804	0.037975	
0.755156	0.165831	0.863495	0.330448	0.268625	6.393995	0.037990	
0.760469	0.165804	0.863865	0.330500	0.268634	6.396870	0.037975	
0.764540	0.165801	0.864002	0.330553	0.268668	6.396664	0.037975	
0.766710	0.165814	0.863945	0.330597	0.268716	6.397683	0.037975	
0.770781	0.165863	0.863776	0.330666	0.268790	6.396503	0.037990	
0.776094	0.165857	0.863915	0.330765	0.268871	6.400941	0.037975	
0.780165	0.165839	0.864457	0.330776	0.268812	6.399567	0.037975	
0.782335	0.165832	0.864815	0.330794	0.268781	6.399076	0.037975	
0.786406	0.165864	0.864999	0.330845	0.268793	6.396564	0.037990	
0.791719	0.165909	0.865148	0.331026	0.268936	6.400005	0.037990	
0.795790	0.165923	0.865398	0.331120	0.268989	6.401129	0.037990	
0.797960	0.165928	0.865383	0.331163	0.269032	6.401512	0.037990	
0.802031	0.165884	0.864425	0.331019	0.269043	6.403053	0.037975	
0.807344	0.165732	0.861770	0.330187	0.268647	6.401214	0.037945	
0.811415	0.165380	0.858342	0.328381	0.267459	6.383974	0.037915	
0.813585	0.165021	0.855056	0.326905	0.266580	6.376086	0.037854	
0.817656	0.164257	0.841342	0.322515	0.264380	6.356651	0.037733	
0.822969	0.161925	0.807143	0.310877	0.258132	6.294719	0.037371	
0.827040	0.157296	0.738983	0.286684	0.243734	6.121945	0.036797	
0.829210	0.154076	0.677248	0.267823	0.232489	5.959394	0.036525	
0.833281	0.139879	0.424292	0.194805	0.182214	5.145710	0.035664	
0.838594	0.124761	0.082158	0.115342	0.114921	3.635997	0.037899	
0.842665	0.120435	-0.024497	0.094859	0.094823	3.107404	0.039621	
0.844835	0.122238	0.013490	0.100620	0.100609	3.246759	0.039334	
0.848906	0.122041	0.009506	0.100346	0.100340	3.243536	0.039289	
0.854219	0.121439	-0.002853	0.098291	0.098290	3.194851	0.039395	
0.858290	0.121599	-0.000840	0.098462	0.098462	3.196149	0.039440	
0.860460	0.121727	0.002560	0.099042	0.099041	3.210044	0.039395	
0.864531	0.121591	-0.000064	0.098665	0.098665	3.202902	0.039395	
0.869844	0.121603	-0.000109	0.098639	0.098639	3.201111	0.039410	
0.873915	0.121620	0.000277	0.098691	0.098691	3.202016	0.039410	
0.876085	0.121599	-0.000056	0.098656	0.098656	3.200932	0.039410	
0.880156	0.121603	-0.000046	0.098650	0.098650	3.201121	0.039410	
0.885469	0.121606	0.000026	0.098661	0.098661	3.201297	0.039410	
0.889540	0.121604	-0.000006	0.098657	0.098657	3.201192	0.039410	
0.891710	0.121604	-0.000018	0.098655	0.098655	3.201183	0.039410	
0.895781	0.121605	0.000006	0.098658	0.098658	3.201243	0.039410	
0.901094	0.121605	-0.000001	0.098657	0.098657	3.201221	0.039410	
0.905165	0.121605	-0.000002	0.098657	0.098657	3.201219	0.039410	
0.907335	0.121605	0.000002	0.098658	0.098658	3.201232	0.039410	
0.911406	0.121605	0.000000	0.098657	0.098657	3.201225	0.039410	
0.916719	0.121605	-0.000000	0.098657	0.098657	3.201224	0.039410	
0.920790	0.121605	0.000000	0.098657	0.098657	3.201226	0.039410	
0.922960	0.121605	0.000000	0.098657	0.098657	3.201225	0.039410	
0.927031	0.121605	-0.000000	0.098657	0.098657	3.201225	0.039410	
0.932344	0.121605	0.000000	0.098657	0.098657	3.201225	0.039410	
0.936415	0.121605	0.000000	0.098657	0.098657	3.201225	0.039410	
0.938585	0.121605	-0.000000	0.098657	0.098657	3.201225	0.039410	
0.942656	0.121605	0.000000	0.098657	0.098657	3.201225	0.039410	
0.947969	0.121605	-0.000000	0.098657	0.098657	3.201225	0.039410	
0.952040	0.121605	-0.000000	0.098657	0.098657	3.201225	0.039410	
0.954210	0.121605	0.000000	0.098657	0.098657	3.201225	0.039410	
0.958281	0.121605	0.000000	0.098657	0.098657	3.201225	0.039410	
0.963594	0.121605	-0.000000	0.098657	0.098657	3.201225	0.039410	
0.967665	0.121605	0.000000	0.098657	0.098657	3.201225	0.039410	
0.969835	0.121605	0.000000	0.098657	0.098657	3.201225	0.039410	
0.973906	0.121605	-0.000000	0.098657	0.098657	3.201225	0.039410	
0.979219	0.121605	0.000000	0.098657	0.098657	3.201225	0.039410	
0.983290	0.121605	0.000000	0.098657	0.098657	3.201225	0.039410	
0.985460	0.121605	-0.000000	0.098657	0.098657	3.201225	0.039410	
0.989531	0.121605	0.000000	0.098657	0.098657	3.201225	0.039410	
0.994844	0.121605	0.000000	0.098657	0.098657	3.201225	0.039410	
0.998915	0.121605	-0.000000	0.098657	0.098657	3.201225	0.039410	
