TITLE = "DG1DBEX32-P4RK6w100iv80"
VARIABLES = "x" "Density" "Velocity in x" "Energy" "Pressure" "Temperature" "Fugacity"
ZONE T = "Final Time 0.10"
I = 160, J = 1, K = 1, F = POINT

0.001466	1.260913	0.000001	1.118798	1.118798	3.999538	0.282187	
0.007211	1.260913	0.000002	1.118797	1.118797	3.999538	0.282187	
0.015625	1.260912	0.000002	1.118796	1.118796	3.999536	0.282187	
0.024039	1.260912	0.000003	1.118794	1.118794	3.999534	0.282187	
0.029784	1.260912	0.000004	1.118792	1.118792	3.999532	0.282187	
0.032716	1.260911	0.000005	1.118791	1.118791	3.999530	0.282187	
0.038461	1.260911	0.000006	1.118787	1.118787	3.999527	0.282187	
0.046875	1.260910	0.000009	1.118781	1.118781	3.999520	0.282187	
0.055289	1.260908	0.000013	1.118772	1.118772	3.999510	0.282187	
0.061034	1.260907	0.000018	1.118762	1.118762	3.999500	0.282187	
0.063966	1.260905	0.000022	1.118753	1.118753	3.999488	0.282187	
0.069711	1.260903	0.000028	1.118741	1.118741	3.999476	0.282187	
0.078125	1.260895	0.000049	1.118696	1.118696	3.999427	0.282187	
0.086539	1.260876	0.000098	1.118594	1.118594	3.998760	0.282202	
0.092284	1.260862	0.000138	1.118517	1.118517	3.998672	0.282202	
0.095216	1.260855	0.000156	1.118476	1.118476	3.998628	0.282202	
0.100961	1.260833	0.000210	1.118367	1.118367	3.998491	0.282202	
0.109375	1.260790	0.000321	1.118136	1.118136	3.997675	0.282218	
0.117789	1.260728	0.000483	1.117811	1.117811	3.996732	0.282233	
0.123534	1.260669	0.000635	1.117510	1.117510	3.995815	0.282248	
0.126466	1.260631	0.000729	1.117328	1.117328	3.995578	0.282248	
0.132211	1.260543	0.000950	1.116886	1.116886	3.993928	0.282278	
0.140625	1.260365	0.001393	1.116026	1.116024	3.991714	0.282308	
0.149039	1.260107	0.002024	1.114816	1.114814	3.988455	0.282354	
0.154784	1.259870	0.002597	1.113728	1.113723	3.985326	0.282399	
0.157716	1.259725	0.002945	1.113075	1.113069	3.983327	0.282429	
0.163461	1.259386	0.003752	1.111573	1.111564	3.979021	0.282489	
0.171875	1.258729	0.005297	1.108737	1.108720	3.971089	0.282595	
0.180289	1.257827	0.007384	1.104976	1.104942	3.960552	0.282731	
0.186034	1.257035	0.009194	1.101769	1.101716	3.951802	0.282837	
0.188966	1.256566	0.010255	1.099907	1.099840	3.946709	0.282897	
0.194711	1.255504	0.012637	1.095773	1.095672	3.935229	0.283033	
0.203125	1.253559	0.016945	1.088441	1.088261	3.915061	0.283260	
0.211539	1.251065	0.022373	1.079420	1.079107	3.890519	0.283517	
0.217284	1.249000	0.026807	1.072209	1.071760	3.870857	0.283713	
0.220216	1.247822	0.029317	1.068184	1.067648	3.859890	0.283819	
0.225961	1.245251	0.034747	1.059604	1.058852	3.836721	0.284030	
0.234375	1.240814	0.043992	1.045361	1.044160	3.797582	0.284378	
0.242789	1.235511	0.054874	1.029131	1.027271	3.752982	0.284740	
0.248534	1.231358	0.063289	1.016942	1.014475	3.719239	0.284997	
0.251466	1.229065	0.067898	1.010388	1.007555	3.700900	0.285133	
0.257211	1.224226	0.077558	0.996926	0.993244	3.662897	0.285405	
0.265625	1.216290	0.093212	0.975847	0.970563	3.603389	0.285782	
0.274039	1.207329	0.110660	0.953356	0.945964	3.539020	0.286145	
0.279784	1.200615	0.123597	0.937321	0.928150	3.492229	0.286386	
0.282716	1.197002	0.130513	0.928962	0.918767	3.467508	0.286507	
0.288461	1.189562	0.144673	0.912296	0.899847	3.417628	0.286734	
0.296875	1.177814	0.166822	0.887388	0.870999	3.341456	0.287036	
0.305289	1.165075	0.190585	0.862155	0.840996	3.262105	0.287293	
0.311034	1.155824	0.207698	0.844897	0.819967	3.206197	0.287444	
0.313966	1.150937	0.216693	0.836117	0.809096	3.177435	0.287504	
0.319711	1.141040	0.234828	0.819029	0.787568	3.120086	0.287610	
0.328125	1.125816	0.262519	0.794411	0.755618	3.034126	0.287731	
0.336539	1.109766	0.291462	0.770521	0.723383	2.946646	0.287791	
0.342284	1.098363	0.311891	0.754743	0.701321	2.886407	0.287791	
0.345216	1.092416	0.322507	0.746885	0.690074	2.855615	0.287776	
0.350961	1.080516	0.343663	0.731899	0.668092	2.794869	0.287731	
0.359375	1.062549	0.375414	0.711037	0.636162	2.706324	0.287580	
0.367789	1.044005	0.407953	0.691588	0.604714	2.617954	0.287353	
0.373534	1.031054	0.430547	0.679179	0.583615	2.557869	0.287157	
0.376466	1.024365	0.442175	0.673128	0.572987	2.527505	0.287036	
0.382211	1.011115	0.465122	0.661839	0.552467	2.468845	0.286749	
0.390625	0.991436	0.498999	0.646688	0.523254	2.383924	0.286266	
0.399039	0.971525	0.533013	0.633202	0.495195	2.301512	0.285661	
0.404784	0.957854	0.556203	0.624946	0.476784	2.247186	0.285163	
0.407716	0.950868	0.567999	0.621027	0.467641	2.219917	0.284891	
0.413461	0.937187	0.590978	0.613919	0.450260	2.167905	0.284302	
0.421875	0.917263	0.624129	0.604831	0.426177	2.095369	0.283305	
0.430289	0.897596	0.656410	0.597238	0.403862	2.028138	0.282112	
0.436034	0.884384	0.677789	0.592855	0.389713	1.985305	0.281190	
0.438966	0.877728	0.688446	0.590854	0.382851	1.964632	0.280677	
0.444711	0.864884	0.708763	0.587366	0.370131	1.926436	0.279589	
0.453125	0.846610	0.736980	0.583202	0.353289	1.876810	0.277762	
0.461539	0.829020	0.763132	0.580008	0.338610	1.834995	0.275632	
0.467284	0.817396	0.779703	0.578291	0.329828	1.811319	0.273970	
0.470216	0.811580	0.787735	0.577536	0.325732	1.800858	0.273049	
0.475961	0.800370	0.802657	0.576256	0.318434	1.783299	0.271101	
0.484375	0.784234	0.822626	0.574746	0.309395	1.765440	0.267808	
0.492789	0.768073	0.840580	0.573491	0.302141	1.756900	0.263896	
0.498534	0.756754	0.851873	0.572676	0.298092	1.756653	0.260784	
0.501466	0.750808	0.857396	0.572247	0.296277	1.758122	0.259047	
0.507211	0.738668	0.867867	0.571337	0.293157	1.765066	0.255256	
0.515625	0.719256	0.882699	0.569702	0.289496	1.784147	0.248715	
0.524039	0.697169	0.897445	0.567474	0.286721	1.816067	0.240710	
0.529784	0.680150	0.907742	0.565460	0.285240	1.846200	0.234275	
0.532716	0.670772	0.913128	0.564240	0.284594	1.864703	0.230650	
0.538461	0.650945	0.923997	0.561404	0.283526	1.907258	0.222871	
0.546875	0.618356	0.940741	0.556012	0.282391	1.987588	0.209806	
0.555289	0.581717	0.958416	0.548888	0.281716	2.093240	0.194852	
0.561034	0.554717	0.970864	0.542935	0.281503	2.182837	0.183705	
0.563966	0.540454	0.977258	0.539547	0.281471	2.234297	0.177799	
0.569711	0.511845	0.989718	0.532234	0.281547	2.347522	0.165927	
0.578125	0.469287	1.007243	0.520023	0.281968	2.544739	0.148269	
0.586539	0.427435	1.022938	0.506343	0.282709	2.781140	0.131005	
0.592284	0.400045	1.032007	0.496392	0.283360	2.965208	0.119812	
0.595216	0.386606	1.035983	0.491190	0.283725	3.065243	0.114374	
0.600961	0.361517	1.042310	0.480860	0.284482	3.273626	0.104315	
0.609375	0.328159	1.047656	0.465711	0.285620	3.601324	0.091204	
0.617789	0.299132	1.047985	0.450953	0.286689	3.949280	0.080072	
0.623534	0.281829	1.045300	0.441297	0.287326	4.189470	0.073607	
0.626466	0.273763	1.043073	0.436538	0.287611	4.312585	0.070631	
0.632211	0.259387	1.037135	0.427584	0.288080	4.550755	0.065405	
0.640625	0.241509	1.025193	0.415437	0.288522	4.881741	0.059076	
0.649039	0.226974	1.010309	0.404496	0.288657	5.187566	0.054061	
0.654784	0.218716	0.999008	0.397723	0.288582	5.378662	0.051267	
0.657716	0.214962	0.993011	0.394475	0.288492	5.466078	0.050029	
0.663461	0.208410	0.980989	0.388496	0.288216	5.630096	0.047869	
0.671875	0.200498	0.963218	0.380614	0.287604	5.832273	0.045331	
0.680289	0.194232	0.945783	0.373654	0.286783	5.997650	0.043367	
0.686034	0.190720	0.934263	0.369350	0.286115	6.093787	0.042280	
0.688966	0.189130	0.928526	0.367272	0.285741	6.136376	0.041796	
0.694711	0.186357	0.917570	0.363400	0.284949	6.209440	0.040966	
0.703125	0.182983	0.902179	0.358119	0.283652	6.293307	0.039984	
0.711539	0.180238	0.887370	0.353138	0.282176	6.350300	0.039229	
0.717284	0.178634	0.877424	0.349811	0.281048	6.383569	0.038791	
0.720216	0.177883	0.872350	0.348113	0.280429	6.396370	0.038594	
0.725961	0.176514	0.862325	0.344754	0.279125	6.411321	0.038262	
0.734375	0.174690	0.847136	0.339632	0.276950	6.429942	0.037824	
0.742789	0.172985	0.830810	0.334080	0.274379	6.431035	0.037461	
0.748534	0.171840	0.818649	0.329926	0.272343	6.425814	0.037235	
0.751466	0.171252	0.812033	0.327662	0.271200	6.419301	0.037129	
0.757211	0.170072	0.798092	0.322884	0.268720	6.405876	0.036918	
0.765625	0.168235	0.774771	0.314907	0.264414	6.369503	0.036631	
0.774039	0.166195	0.746967	0.305471	0.259106	6.317135	0.036344	
0.779784	0.164642	0.724718	0.297998	0.254762	6.268972	0.036147	
0.782716	0.163790	0.712159	0.293817	0.252282	6.241695	0.036042	
0.788461	0.161985	0.684803	0.284806	0.246825	6.173702	0.035845	
0.796875	0.158983	0.637209	0.269474	0.237197	6.045914	0.035558	
0.805289	0.155500	0.578877	0.251292	0.225238	5.870568	0.035301	
0.811034	0.152841	0.532129	0.237198	0.215558	5.711591	0.035181	
0.813966	0.151401	0.505997	0.229498	0.210116	5.624220	0.035120	
0.819711	0.148457	0.450734	0.213628	0.198547	5.417223	0.035090	
0.828125	0.143985	0.361864	0.189222	0.179795	5.059925	0.035211	
0.836539	0.139722	0.271143	0.165621	0.160485	4.653485	0.035619	
0.842284	0.137160	0.213558	0.151278	0.148150	4.377059	0.036042	
0.845216	0.136013	0.186974	0.144810	0.142432	4.245526	0.036283	
0.850961	0.134105	0.141541	0.133963	0.132620	4.009847	0.036797	
0.859375	0.132088	0.091769	0.122360	0.121804	3.740334	0.037507	
0.867789	0.130797	0.058866	0.114831	0.114605	3.551959	0.038096	
0.873534	0.130213	0.043645	0.111375	0.111251	3.466401	0.038383	
0.876466	0.129979	0.037490	0.109983	0.109891	3.428941	0.038519	
0.882211	0.129621	0.028001	0.107836	0.107785	3.371913	0.038730	
0.890625	0.129267	0.018479	0.105680	0.105658	3.316172	0.038942	
0.899039	0.129043	0.012372	0.104294	0.104284	3.278480	0.039093	
0.904784	0.128938	0.009469	0.103632	0.103626	3.260154	0.039168	
0.907716	0.128895	0.008281	0.103361	0.103356	3.252829	0.039198	
0.913461	0.128827	0.006393	0.102927	0.102924	3.241690	0.039244	
0.921875	0.128757	0.004409	0.102468	0.102467	3.227905	0.039304	
0.930289	0.128709	0.003063	0.102156	0.102155	3.220434	0.039334	
0.936034	0.128686	0.002395	0.101999	0.101998	3.216717	0.039349	
0.938966	0.128676	0.002113	0.101933	0.101933	3.213689	0.039365	
0.944711	0.128660	0.001654	0.101825	0.101825	3.210377	0.039380	
0.953125	0.128643	0.001157	0.101706	0.101706	3.206991	0.039395	
0.961539	0.128631	0.000800	0.101621	0.101621	3.206386	0.039395	
0.967284	0.128624	0.000614	0.101577	0.101577	3.203513	0.039410	
0.970216	0.128622	0.000539	0.101561	0.101561	3.203424	0.039410	
0.975961	0.128619	0.000434	0.101533	0.101533	3.203244	0.039410	
0.984375	0.128612	0.000250	0.101486	0.101486	3.200394	0.039425	
0.992789	0.128609	0.000128	0.101465	0.101465	3.200234	0.039425	
0.998534	0.128609	0.000099	0.101463	0.101463	3.200248	0.039425	
