TITLE = "DG1DFDX16-P4RK4w1000iv80"
VARIABLES = "x" "Density" "Velocity in x" "Energy" "Pressure" "Temperature" "Fugacity"
ZONE T = "Final Time 0.10"
I = 80, J = 1, K = 1, F = POINT

0.002932	0.835419	-0.000020	0.912080	0.912080	4.006046	0.281009	
0.014423	0.835419	-0.000022	0.912080	0.912080	4.006051	0.281009	
0.031250	0.835401	0.000034	0.912023	0.912023	4.005876	0.281009	
0.048077	0.835418	-0.000020	0.912081	0.912081	4.006038	0.281009	
0.059568	0.835447	-0.000101	0.912162	0.912162	4.006317	0.281009	
0.065432	0.835406	0.000021	0.912032	0.912032	4.005920	0.281009	
0.076923	0.835369	0.000130	0.911923	0.911923	4.005572	0.281009	
0.093750	0.835427	-0.000047	0.912109	0.912109	4.006122	0.281009	
0.110577	0.835441	-0.000077	0.912136	0.912136	4.006256	0.281009	
0.122068	0.835287	0.000374	0.911662	0.911662	4.004780	0.281009	
0.127932	0.835303	0.000332	0.911722	0.911722	4.004929	0.281009	
0.139423	0.835489	-0.000245	0.912314	0.912314	4.006718	0.281009	
0.156250	0.835537	-0.000354	0.912440	0.912440	4.007183	0.281009	
0.173077	0.835214	0.000636	0.911353	0.911353	4.003721	0.281024	
0.184568	0.835213	0.000532	0.911497	0.911497	4.004431	0.280994	
0.190432	0.835360	0.000208	0.911871	0.911871	4.005484	0.281009	
0.201923	0.834843	0.001908	0.909693	0.909692	3.998349	0.281100	
0.218750	0.830284	0.016693	0.893355	0.893239	3.946945	0.281432	
0.235577	0.819369	0.051002	0.857818	0.856752	3.835878	0.281780	
0.247068	0.808440	0.084632	0.825201	0.822306	3.731535	0.281900	
0.252932	0.802175	0.104011	0.807271	0.802932	3.671940	0.281991	
0.264423	0.788550	0.145844	0.770838	0.762451	3.546981	0.282051	
0.281250	0.766606	0.213023	0.717792	0.700398	3.351405	0.282097	
0.298077	0.743256	0.284405	0.668416	0.638356	3.150643	0.282082	
0.309568	0.726740	0.334914	0.637550	0.596792	3.012450	0.282067	
0.315432	0.718151	0.361094	0.622791	0.575972	2.942192	0.282036	
0.326923	0.701081	0.413091	0.595917	0.536099	2.805252	0.281961	
0.343750	0.675648	0.490662	0.561487	0.480156	2.607055	0.281855	
0.360577	0.649783	0.569409	0.532816	0.427477	2.413451	0.281704	
0.372068	0.632016	0.623452	0.516511	0.393681	2.285337	0.281553	
0.377932	0.623034	0.650858	0.509221	0.377258	2.221644	0.281493	
0.389423	0.605656	0.703806	0.496913	0.346909	2.101523	0.281326	
0.406250	0.582037	0.775531	0.483551	0.308519	1.945030	0.280964	
0.423077	0.563508	0.831035	0.475641	0.281056	1.830448	0.280299	
0.434568	0.556168	0.852687	0.473170	0.270983	1.788433	0.279801	
0.440432	0.554231	0.858188	0.472637	0.268545	1.778582	0.279559	
0.451923	0.553046	0.861004	0.472418	0.267424	1.775185	0.279166	
0.468750	0.553450	0.859134	0.472595	0.268341	1.780053	0.278955	
0.485577	0.552639	0.860986	0.472315	0.267480	1.777113	0.278743	
0.497068	0.551833	0.863144	0.472101	0.266539	1.773389	0.278608	
0.502932	0.552218	0.862851	0.472269	0.266703	1.773268	0.278849	
0.514423	0.551538	0.861182	0.472300	0.267780	1.783218	0.277520	
0.531250	0.550648	0.859474	0.471782	0.268401	1.790776	0.276297	
0.548077	0.548513	0.862875	0.471549	0.267351	1.791449	0.274967	
0.559568	0.530071	0.868143	0.466859	0.267109	1.860418	0.258292	
0.565432	0.508654	0.872976	0.460746	0.266926	1.947305	0.239683	
0.576923	0.429025	0.886248	0.436048	0.267562	2.356013	0.177089	
0.593750	0.293144	0.902744	0.388131	0.268683	3.553059	0.093485	
0.610577	0.208100	0.899020	0.352462	0.268365	5.062743	0.054167	
0.622068	0.183953	0.882626	0.339918	0.268265	5.743617	0.044666	
0.627932	0.176347	0.879957	0.336076	0.267801	5.987883	0.041857	
0.639423	0.169417	0.869842	0.331902	0.267809	6.236601	0.039334	
0.656250	0.166092	0.864731	0.329749	0.267651	6.359826	0.038156	
0.673077	0.165504	0.862732	0.329625	0.268032	6.393590	0.037915	
0.684568	0.165457	0.861507	0.329885	0.268485	6.404817	0.037869	
0.690432	0.165669	0.859880	0.330129	0.268881	6.406352	0.037915	
0.701923	0.166127	0.859646	0.330482	0.269099	6.392094	0.038066	
0.718750	0.165752	0.864887	0.330358	0.268364	6.392899	0.037975	
0.735577	0.165331	0.867785	0.329923	0.267672	6.390124	0.037884	
0.747068	0.165871	0.861307	0.330576	0.269050	6.402051	0.037975	
0.752932	0.166108	0.862069	0.329655	0.267933	6.365973	0.038141	
0.764423	0.166116	0.872662	0.331084	0.267832	6.366587	0.038141	
0.781250	0.164749	0.856504	0.328446	0.268017	6.424840	0.037643	
0.798077	0.166243	0.859001	0.329743	0.268410	6.371403	0.038156	
0.809568	0.167165	0.868360	0.330984	0.267959	6.324762	0.038519	
0.815432	0.168429	0.862118	0.339515	0.276923	6.489975	0.038307	
0.826923	0.151671	0.681013	0.265158	0.229987	5.990363	0.035845	
0.843750	0.123656	0.045821	0.106230	0.106100	3.385472	0.038957	
0.860577	0.119912	-0.037300	0.093402	0.093318	3.071320	0.039682	
0.872068	0.127229	0.114324	0.116966	0.116135	3.602944	0.038851	
0.877932	0.121221	-0.012561	0.097973	0.097964	3.188196	0.039365	
0.889423	0.119829	-0.030906	0.093961	0.093904	3.092215	0.039516	
0.906250	0.122536	0.017333	0.101090	0.101072	3.255286	0.039380	
0.923077	0.121059	-0.008229	0.097558	0.097553	3.179668	0.039365	
0.934568	0.121274	-0.007465	0.097477	0.097474	3.171968	0.039485	
0.940432	0.122284	0.013561	0.100410	0.100399	3.239475	0.039395	
0.951923	0.121476	-0.001031	0.098566	0.098566	3.201600	0.039365	
0.968750	0.121555	-0.000387	0.098577	0.098577	3.200974	0.039395	
0.985577	0.121652	0.000488	0.098856	0.098856	3.206114	0.039395	
0.997068	0.121616	-0.004347	0.098860	0.098859	3.206581	0.039380	
