TITLE = "DG1DBEX64-P3RK4w10iv80"
VARIABLES = "x" "Density" "Velocity in x" "Energy" "Pressure" "Temperature" "Fugacity"
ZONE T = "Final Time 0.10"
I = 256, J = 1, K = 1, F = POINT

0.001085	1.260304	0.000662	1.116401	1.116400	3.992962	0.282263	
0.005156	1.260309	0.000657	1.116448	1.116448	3.992992	0.282263	
0.010469	1.260306	0.000684	1.116410	1.116410	3.992970	0.282263	
0.014540	1.260276	0.000802	1.116088	1.116087	3.992236	0.282278	
0.016710	1.260247	0.000909	1.115791	1.115790	3.990972	0.282308	
0.020781	1.260191	0.001121	1.115201	1.115200	3.989527	0.282338	
0.026094	1.260135	0.001326	1.114639	1.114638	3.987548	0.282384	
0.030165	1.260127	0.001357	1.114570	1.114569	3.987496	0.282384	
0.032335	1.260131	0.001344	1.114615	1.114613	3.987519	0.282384	
0.036406	1.260122	0.001374	1.114546	1.114545	3.987463	0.282384	
0.041719	1.260055	0.001604	1.113931	1.113929	3.985415	0.282429	
0.045790	1.259949	0.001966	1.112953	1.112951	3.982038	0.282505	
0.047960	1.259888	0.002173	1.112398	1.112395	3.980570	0.282535	
0.052031	1.259804	0.002457	1.111641	1.111638	3.978414	0.282580	
0.057344	1.259758	0.002607	1.111257	1.111253	3.977044	0.282610	
0.061415	1.259760	0.002598	1.111297	1.111292	3.977052	0.282610	
0.063585	1.259744	0.002648	1.111173	1.111169	3.976954	0.282610	
0.067656	1.259647	0.002960	1.110381	1.110376	3.974182	0.282671	
0.072969	1.259420	0.003692	1.108520	1.108511	3.968429	0.282792	
0.077040	1.259220	0.004331	1.106910	1.106898	3.963937	0.282882	
0.079210	1.259146	0.004563	1.106332	1.106319	3.961858	0.282927	
0.083281	1.259079	0.004772	1.105824	1.105809	3.960361	0.282958	
0.088594	1.259043	0.004880	1.105587	1.105572	3.959594	0.282973	
0.092665	1.258949	0.005166	1.104914	1.104897	3.957926	0.283003	
0.094835	1.258829	0.005531	1.104038	1.104019	3.955022	0.283063	
0.098906	1.258515	0.006483	1.101774	1.101748	3.948222	0.283199	
0.104219	1.258078	0.007794	1.098676	1.098638	3.938530	0.283396	
0.108290	1.257867	0.008419	1.097229	1.097185	3.934540	0.283471	
0.110460	1.257827	0.008537	1.096967	1.096921	3.933754	0.283486	
0.114531	1.257765	0.008716	1.096578	1.096530	3.932297	0.283517	
0.119844	1.257523	0.009407	1.095051	1.094995	3.927588	0.283607	
0.123915	1.257065	0.010715	1.092134	1.092062	3.918882	0.283773	
0.126085	1.256742	0.011631	1.090104	1.090019	3.913151	0.283879	
0.130156	1.256182	0.013208	1.086636	1.086526	3.902789	0.284075	
0.135469	1.255693	0.014576	1.083666	1.083533	3.893417	0.284257	
0.139540	1.255572	0.014908	1.082982	1.082843	3.891610	0.284287	
0.141710	1.255504	0.015095	1.082597	1.082454	3.890662	0.284302	
0.145781	1.255140	0.016074	1.080566	1.080404	3.884728	0.284408	
0.151094	1.254188	0.018618	1.075309	1.075091	3.868877	0.284695	
0.155165	1.253185	0.021277	1.069861	1.069577	3.852784	0.284982	
0.157335	1.252726	0.022482	1.067421	1.067105	3.845284	0.285118	
0.161406	1.252164	0.023960	1.064446	1.064087	3.836646	0.285269	
0.166719	1.251779	0.024963	1.062480	1.062090	3.830664	0.285374	
0.170790	1.251410	0.025901	1.060677	1.060258	3.825307	0.285465	
0.172960	1.250966	0.027022	1.058521	1.058064	3.818983	0.285571	
0.177031	1.249717	0.030140	1.052586	1.052019	3.801608	0.285858	
0.182344	1.247783	0.034933	1.043562	1.042800	3.775067	0.286296	
0.186415	1.246621	0.037792	1.038260	1.037370	3.759420	0.286553	
0.188585	1.246291	0.038604	1.036768	1.035840	3.754907	0.286628	
0.192656	1.245847	0.039700	1.034769	1.033787	3.749203	0.286719	
0.197969	1.244897	0.041969	1.030761	1.029665	3.737444	0.286900	
0.202040	1.243257	0.045817	1.024035	1.022730	3.717595	0.287202	
0.204210	1.242048	0.048623	1.019189	1.017721	3.703395	0.287414	
0.208281	1.239834	0.053746	1.010434	1.008643	3.677836	0.287791	
0.213594	1.237671	0.058737	1.002005	0.999870	3.652744	0.288169	
0.217665	1.236946	0.060415	0.999211	0.996954	3.644554	0.288290	
0.219835	1.236625	0.061167	0.997961	0.995647	3.640714	0.288350	
0.223906	1.235332	0.064057	0.993320	0.990786	3.627267	0.288531	
0.229219	1.232121	0.071075	0.982303	0.979191	3.594929	0.288954	
0.233290	1.228692	0.078502	0.970856	0.967070	3.561107	0.289392	
0.235460	1.227077	0.081979	0.965580	0.961457	3.545109	0.289604	
0.239531	1.224985	0.086508	0.958722	0.954138	3.525022	0.289861	
0.244844	1.223444	0.089866	0.953696	0.948756	3.509590	0.290072	
0.248915	1.222167	0.092586	0.949750	0.944512	3.498063	0.290208	
0.251085	1.220758	0.095506	0.945601	0.940034	3.485816	0.290344	
0.255156	1.216893	0.103375	0.934702	0.928200	3.453175	0.290691	
0.260469	1.210983	0.115330	0.918498	0.910444	3.404714	0.291190	
0.264540	1.207448	0.122466	0.909018	0.899963	3.375869	0.291492	
0.266710	1.206435	0.124548	0.906249	0.896892	3.367520	0.291582	
0.270781	1.205011	0.127498	0.902328	0.892534	3.355112	0.291734	
0.276094	1.202118	0.133205	0.895148	0.884484	3.333254	0.291930	
0.280165	1.197398	0.142262	0.884167	0.872050	3.299672	0.292187	
0.282335	1.194026	0.148641	0.876634	0.863443	3.276760	0.292338	
0.286406	1.188030	0.159972	0.863486	0.848284	3.235761	0.292625	
0.291719	1.182417	0.170644	0.851313	0.834098	3.197193	0.292912	
0.295790	1.180651	0.174102	0.847345	0.829452	3.184692	0.293017	
0.297960	1.179758	0.175859	0.845336	0.827093	3.177769	0.293093	
0.302031	1.176171	0.182446	0.838343	0.818768	3.155551	0.293199	
0.307344	1.167723	0.197559	0.823042	0.800254	3.107088	0.293320	
0.311415	1.159260	0.212592	0.808391	0.782194	3.058970	0.293440	
0.313585	1.155519	0.219200	0.802134	0.774373	3.038453	0.293471	
0.317656	1.150962	0.227399	0.794344	0.764586	3.012143	0.293561	
0.322969	1.147750	0.233306	0.788733	0.757496	2.992584	0.293667	
0.327040	1.144505	0.239042	0.783594	0.750895	2.974898	0.293697	
0.329210	1.140849	0.245236	0.778351	0.744046	2.957095	0.293652	
0.333281	1.131577	0.260737	0.765775	0.727311	2.914231	0.293455	
0.338594	1.118579	0.282507	0.748846	0.704209	2.854087	0.293199	
0.342665	1.111795	0.293880	0.740316	0.692306	2.822566	0.293078	
0.344835	1.110102	0.296809	0.738072	0.689175	2.813973	0.293078	
0.348906	1.107473	0.301463	0.734496	0.684172	2.800289	0.293093	
0.354219	1.100796	0.312386	0.726988	0.673278	2.772132	0.292866	
0.358290	1.089831	0.329731	0.716001	0.656756	2.730550	0.292307	
0.360460	1.082647	0.340996	0.709238	0.646294	2.704354	0.291900	
0.364531	1.071157	0.359198	0.698595	0.629493	2.661376	0.291295	
0.369844	1.061900	0.374045	0.690146	0.615861	2.626042	0.290842	
0.373915	1.059440	0.378080	0.687798	0.612077	2.615634	0.290767	
0.376085	1.057574	0.381185	0.686026	0.609192	2.607819	0.290706	
0.380156	1.049713	0.393236	0.680052	0.598891	2.582248	0.290132	
0.385469	1.032172	0.419465	0.668287	0.577481	2.530272	0.288622	
0.389540	1.016477	0.442864	0.658678	0.558998	2.485384	0.287187	
0.391710	1.010855	0.451385	0.655291	0.552311	2.468567	0.286704	
0.395781	1.004950	0.460577	0.651545	0.544955	2.449358	0.286266	
0.401094	1.000423	0.467467	0.648824	0.539515	2.435535	0.285888	
0.405165	0.993019	0.478265	0.645147	0.531576	2.416517	0.285103	
0.407335	0.985842	0.488713	0.641832	0.524102	2.398847	0.284302	
0.411406	0.968813	0.512854	0.634967	0.507558	2.361449	0.282172	
0.416719	0.947517	0.543168	0.627226	0.487452	2.315620	0.279423	
0.420790	0.939398	0.554868	0.624408	0.479798	2.297758	0.278381	
0.422960	0.938607	0.556346	0.623848	0.478589	2.293889	0.278381	
0.427031	0.934612	0.562083	0.622445	0.474806	2.285061	0.277867	
0.432344	0.920625	0.581026	0.618918	0.463520	2.261988	0.275677	
0.436415	0.901407	0.607442	0.614571	0.448267	2.230872	0.272596	
0.438585	0.891022	0.621616	0.612534	0.440385	2.215097	0.270859	
0.442656	0.874993	0.643330	0.609741	0.428673	2.192751	0.268049	
0.447969	0.864280	0.657695	0.608034	0.421107	2.178510	0.266116	
0.452040	0.863716	0.658961	0.607623	0.420097	2.174741	0.266161	
0.454210	0.860392	0.663540	0.607077	0.417668	2.170025	0.265572	
0.458281	0.844213	0.684009	0.605519	0.408029	2.156800	0.262204	
0.463594	0.815972	0.720776	0.603205	0.391249	2.133471	0.256238	
0.467665	0.799848	0.742358	0.602048	0.381652	2.119410	0.252809	
0.469835	0.792757	0.750918	0.601772	0.378263	2.117702	0.251072	
0.473906	0.785339	0.760028	0.601420	0.374598	2.115026	0.249289	
0.479219	0.781515	0.765085	0.601101	0.372370	2.112056	0.248444	
0.483290	0.771050	0.778119	0.600711	0.367288	2.108653	0.245891	
0.485460	0.755352	0.797039	0.600482	0.360555	2.108835	0.241782	
0.489531	0.730919	0.827315	0.600162	0.350023	2.109276	0.235318	
0.494844	0.711713	0.851084	0.599933	0.342170	2.112278	0.230061	
0.498915	0.706975	0.855832	0.599845	0.340933	2.117301	0.228566	
0.501085	0.701194	0.862616	0.599764	0.338883	2.120086	0.226889	
0.505156	0.696422	0.868473	0.599675	0.337039	2.121783	0.225530	
0.510469	0.677015	0.890460	0.599442	0.331033	2.137581	0.219594	
0.514540	0.652223	0.919103	0.599114	0.323632	2.161495	0.211830	
0.516710	0.636238	0.938295	0.598882	0.318811	2.177657	0.206785	
0.520781	0.625187	0.950347	0.598477	0.316156	2.194142	0.203084	
0.526094	0.620500	0.954201	0.598142	0.315660	2.205487	0.201347	
0.530165	0.612407	0.962897	0.597769	0.313867	2.219196	0.198583	
0.532335	0.604918	0.971576	0.597481	0.311972	2.230657	0.196076	
0.536406	0.587852	0.988707	0.596294	0.308969	2.266984	0.190004	
0.541719	0.558218	1.019856	0.593917	0.303614	2.334886	0.179400	
0.545790	0.540872	1.038672	0.592309	0.300552	2.379210	0.173117	
0.547960	0.536920	1.042089	0.591732	0.300198	2.392104	0.171606	
0.552031	0.535187	1.042303	0.591264	0.300552	2.401766	0.170821	
0.557344	0.522878	1.053737	0.589468	0.299176	2.442210	0.166153	
0.561415	0.505488	1.069981	0.586584	0.297228	2.502615	0.159553	
0.563585	0.494338	1.080103	0.584491	0.296139	2.544975	0.155278	
0.567656	0.473663	1.098125	0.580032	0.294442	2.631928	0.147272	
0.572969	0.457850	1.111983	0.576377	0.293309	2.705080	0.141125	
0.577040	0.452508	1.115790	0.574883	0.293200	2.734027	0.138980	
0.579210	0.451009	1.116127	0.574274	0.293355	2.743728	0.138346	
0.583281	0.441496	1.122750	0.571352	0.293084	2.795888	0.134569	
0.588594	0.418366	1.138762	0.563459	0.292195	2.930218	0.125476	
0.592665	0.399995	1.150705	0.556507	0.291685	3.050515	0.118256	
0.594835	0.392144	1.154872	0.553159	0.291652	3.107842	0.115145	
0.598906	0.383584	1.159359	0.549465	0.291675	3.172409	0.111776	
0.604219	0.377628	1.161944	0.546751	0.291830	3.221419	0.109405	
0.608290	0.370655	1.163851	0.543022	0.291987	3.279740	0.106656	
0.610460	0.364473	1.165617	0.539653	0.292054	3.333648	0.104224	
0.614531	0.347816	1.169920	0.530123	0.292092	3.484539	0.097774	
0.619844	0.329256	1.172561	0.518605	0.292258	3.672157	0.090660	
0.623915	0.320762	1.172432	0.512914	0.292455	3.767720	0.087413	
0.626085	0.318600	1.171852	0.511320	0.292564	3.793613	0.086582	
0.630156	0.315595	1.171600	0.509315	0.292715	3.829851	0.085434	
0.635469	0.305722	1.168107	0.501395	0.292820	3.949137	0.081733	
0.639540	0.293904	1.162177	0.491280	0.292798	4.100427	0.077368	
0.641710	0.286609	1.157834	0.484856	0.292744	4.200603	0.074694	
0.645781	0.275563	1.149427	0.474619	0.292585	4.359651	0.070707	
0.651094	0.268883	1.143032	0.468188	0.292537	4.461999	0.068320	
0.655165	0.266293	1.139751	0.465482	0.292521	4.503167	0.067399	
0.657335	0.264631	1.137661	0.463721	0.292469	4.529920	0.066810	
0.661406	0.257986	1.128035	0.456181	0.292042	4.635448	0.064499	
0.666719	0.245375	1.105568	0.440800	0.290842	4.845757	0.060194	
0.670790	0.236517	1.087171	0.429557	0.289783	5.004887	0.057218	
0.672960	0.233110	1.079239	0.425060	0.289302	5.065854	0.056101	
0.677031	0.230312	1.072240	0.421300	0.288905	5.118503	0.055179	
0.682344	0.227691	1.064833	0.417509	0.288423	5.169174	0.054318	
0.686415	0.223652	1.052159	0.411220	0.287425	5.241799	0.053034	
0.688585	0.220220	1.040938	0.405820	0.286510	5.302574	0.051962	
0.692656	0.212418	1.012370	0.392905	0.284052	5.446015	0.049545	
0.697969	0.204861	0.981284	0.379913	0.281281	5.588639	0.047249	
0.702040	0.201929	0.967975	0.374645	0.280044	5.640410	0.046388	
0.704210	0.201367	0.965099	0.373526	0.279748	5.650809	0.046222	
0.708281	0.200219	0.959151	0.371226	0.279128	5.670541	0.045890	
0.713594	0.195482	0.933098	0.361383	0.276283	5.743961	0.044561	
0.717665	0.190197	0.901738	0.350100	0.272772	5.826185	0.043095	
0.719835	0.187211	0.882818	0.343570	0.270617	5.871589	0.042280	
0.723906	0.183168	0.855293	0.334380	0.267383	5.926475	0.041207	
0.729219	0.181068	0.839845	0.329330	0.265473	5.952005	0.040664	
0.733290	0.180218	0.832739	0.326973	0.264486	5.955322	0.040467	
0.735460	0.179508	0.826837	0.325034	0.263673	5.963384	0.040286	
0.739531	0.176568	0.802221	0.317170	0.260354	5.984714	0.039576	
0.744844	0.171409	0.756019	0.303008	0.254022	6.011644	0.038368	
0.748915	0.168061	0.723737	0.293507	0.249493	6.020173	0.037612	
0.751085	0.166899	0.711760	0.290023	0.247748	6.016368	0.037371	
0.755156	0.166035	0.702166	0.287187	0.246256	6.013986	0.037190	
0.760469	0.165002	0.689963	0.283524	0.244249	5.999286	0.037008	
0.764540	0.163287	0.669851	0.277664	0.241030	5.985138	0.036676	
0.766710	0.161867	0.653063	0.272899	0.238382	5.966947	0.036419	
0.770781	0.158766	0.614828	0.262285	0.232277	5.930784	0.035845	
0.776094	0.155885	0.576960	0.252021	0.226075	5.873848	0.035377	
0.780165	0.154785	0.561301	0.247754	0.223371	5.847447	0.035211	
0.782335	0.154552	0.557491	0.246649	0.222632	5.835008	0.035196	
0.786406	0.153986	0.548535	0.244103	0.220936	5.812838	0.035135	
0.791719	0.152000	0.518163	0.235873	0.215467	5.739518	0.034909	
0.795790	0.149879	0.484856	0.227096	0.209479	5.660523	0.034667	
0.797960	0.148700	0.465791	0.222160	0.206029	5.611882	0.034546	
0.802031	0.147078	0.438445	0.215111	0.200974	5.534678	0.034410	
0.807344	0.146113	0.420978	0.210523	0.197576	5.477071	0.034365	
0.811415	0.145642	0.411741	0.208007	0.195661	5.441829	0.034365	
0.813585	0.145295	0.405054	0.206220	0.194301	5.415891	0.034365	
0.817656	0.144083	0.382181	0.200292	0.189770	5.335531	0.034335	
0.822969	0.142041	0.342619	0.190249	0.181912	5.185381	0.034335	
0.827040	0.140684	0.315322	0.183417	0.176423	5.077629	0.034365	
0.829210	0.140177	0.304737	0.180754	0.174245	5.032020	0.034395	
0.833281	0.139691	0.294067	0.178007	0.171967	4.983679	0.034440	
0.838594	0.139151	0.281783	0.174796	0.169271	4.927458	0.034501	
0.842665	0.138463	0.266308	0.170831	0.165922	4.852681	0.034592	
0.844835	0.137933	0.254443	0.167846	0.163381	4.798449	0.034652	
0.848906	0.136791	0.228373	0.161337	0.157769	4.673233	0.034818	
0.854219	0.135660	0.201748	0.154720	0.151959	4.535554	0.035045	
0.858290	0.135168	0.189697	0.151696	0.149264	4.474992	0.035150	
0.860460	0.135036	0.186262	0.150804	0.148461	4.454441	0.035196	
0.864531	0.134797	0.180042	0.149187	0.147003	4.419183	0.035271	
0.869844	0.134154	0.163619	0.145010	0.143215	4.323815	0.035483	
0.873915	0.133482	0.146282	0.140646	0.139218	4.225040	0.035709	
0.876085	0.133101	0.136354	0.138157	0.136920	4.168325	0.035845	
0.880156	0.132545	0.121575	0.134442	0.133463	4.080467	0.036072	
0.885469	0.132190	0.111861	0.131974	0.131147	4.020537	0.036238	
0.889540	0.132049	0.107810	0.130914	0.130147	3.994801	0.036313	
0.891710	0.131967	0.105479	0.130304	0.129570	3.979688	0.036359	
0.895781	0.131682	0.097411	0.128219	0.127595	3.928895	0.036510	
0.901094	0.131158	0.082471	0.124365	0.123919	3.829076	0.036827	
0.905165	0.130787	0.071718	0.121592	0.121255	3.759759	0.037054	
0.907335	0.130640	0.067398	0.120471	0.120174	3.729416	0.037159	
0.911406	0.130499	0.063198	0.119371	0.119110	3.699738	0.037265	
0.916719	0.130406	0.060337	0.118608	0.118371	3.679128	0.037341	
0.920790	0.130299	0.057024	0.117719	0.117507	3.657845	0.037416	
0.922960	0.130204	0.054133	0.116947	0.116756	3.634436	0.037507	
0.927031	0.129970	0.046887	0.115006	0.114863	3.582716	0.037703	
0.932344	0.129706	0.038619	0.112779	0.112683	3.521614	0.037945	
0.936415	0.129586	0.034797	0.111743	0.111665	3.495027	0.038050	
0.938585	0.129558	0.033904	0.111497	0.111422	3.487850	0.038081	
0.942656	0.129537	0.033229	0.111308	0.111236	3.483888	0.038096	
0.947969	0.129464	0.030849	0.110641	0.110579	3.463011	0.038186	
0.952040	0.129361	0.027463	0.109688	0.109640	3.437905	0.038292	
0.954210	0.129292	0.025159	0.109039	0.108998	3.420310	0.038368	
0.958281	0.129172	0.021168	0.107905	0.107876	3.386505	0.038519	
0.963594	0.129089	0.018392	0.107108	0.107086	3.365839	0.038609	
0.967665	0.129068	0.017718	0.106907	0.106887	3.359349	0.038640	
0.969835	0.129065	0.017642	0.106880	0.106860	3.359208	0.038640	
0.973906	0.129045	0.016980	0.106680	0.106661	3.352755	0.038670	
0.979219	0.128975	0.014585	0.105964	0.105950	3.333044	0.038760	
0.983290	0.128909	0.012271	0.105270	0.105261	3.313658	0.038851	
0.985460	0.128876	0.011121	0.104924	0.104916	3.301403	0.038911	
0.989531	0.128838	0.009775	0.104514	0.104508	3.291547	0.038957	
0.994844	0.128824	0.009296	0.104365	0.104360	3.285584	0.038987	
0.998915	0.128820	0.009184	0.104329	0.104324	3.285413	0.038987	
