TITLE = "DG1DBEX16-P4RK4w10iv80"
VARIABLES = "x" "Density" "Velocity in x" "Energy" "Pressure" "Temperature" "Fugacity"
ZONE T = "Final Time 0.10"
I = 80, J = 1, K = 1, F = POINT

0.002932	1.260377	0.000639	1.116507	1.116507	3.993421	0.282263	
0.014423	1.260316	0.000873	1.115880	1.115879	3.991407	0.282308	
0.031250	1.260189	0.001340	1.114612	1.114610	3.987349	0.282399	
0.048077	1.259994	0.002018	1.112799	1.112796	3.981780	0.282520	
0.059568	1.259798	0.002657	1.111147	1.111142	3.976752	0.282625	
0.065432	1.259685	0.003043	1.110151	1.110146	3.973339	0.282701	
0.076923	1.259400	0.003960	1.107845	1.107836	3.966687	0.282837	
0.093750	1.258809	0.005776	1.103441	1.103420	3.953289	0.283109	
0.110577	1.257968	0.008308	1.097523	1.097479	3.935169	0.283471	
0.122068	1.257182	0.010570	1.092421	1.092350	3.919611	0.283773	
0.127932	1.256686	0.011941	1.089422	1.089332	3.910686	0.283940	
0.139423	1.255583	0.015040	1.082733	1.082591	3.890629	0.284317	
0.156250	1.253416	0.020850	1.070707	1.070435	3.855249	0.284952	
0.173077	1.250427	0.028506	1.055666	1.055158	3.810551	0.285722	
0.184568	1.247891	0.034929	1.043516	1.042754	3.774704	0.286326	
0.190432	1.246317	0.038675	1.036687	1.035755	3.754555	0.286643	
0.201923	1.242821	0.046952	1.022028	1.020658	3.711497	0.287308	
0.218750	1.236543	0.061472	0.997550	0.995214	3.639252	0.288380	
0.235577	1.228392	0.079304	0.969544	0.965681	3.556993	0.289468	
0.247068	1.221665	0.093579	0.948498	0.943149	3.494259	0.290238	
0.252932	1.218021	0.101410	0.937273	0.931010	3.460498	0.290661	
0.264423	1.209565	0.118412	0.914269	0.905789	3.391327	0.291371	
0.281250	1.195071	0.146782	0.878735	0.865861	3.282930	0.292323	
0.298077	1.177968	0.179252	0.841860	0.822935	3.166876	0.293138	
0.309568	1.163844	0.204305	0.816336	0.792046	3.085251	0.293365	
0.315432	1.156466	0.217749	0.803330	0.775913	3.041826	0.293531	
0.326923	1.140794	0.245489	0.778241	0.743866	2.956807	0.293652	
0.343750	1.113897	0.290407	0.742790	0.695819	2.831748	0.293138	
0.360577	1.083967	0.339449	0.709877	0.647427	2.705917	0.292111	
0.372068	1.061873	0.374789	0.689511	0.614932	2.622068	0.291008	
0.377932	1.047828	0.394973	0.679732	0.597999	2.582620	0.289709	
0.389423	1.023077	0.433380	0.662233	0.566157	2.501923	0.287897	
0.406250	0.983571	0.492310	0.640743	0.521550	2.392658	0.284075	
0.423077	0.937433	0.556739	0.624164	0.478882	2.297615	0.277928	
0.434568	0.909526	0.598035	0.615705	0.453061	2.236422	0.274273	
0.440432	0.891678	0.621318	0.612304	0.440194	2.212774	0.271131	
0.451923	0.854796	0.669539	0.606996	0.415400	2.170765	0.264152	
0.468750	0.805990	0.734347	0.602350	0.385029	2.123460	0.254183	
0.485577	0.751035	0.802372	0.600428	0.358669	2.108833	0.240650	
0.497068	0.708155	0.855099	0.599901	0.341002	2.114590	0.229004	
0.502932	0.700130	0.864150	0.599730	0.338317	2.119425	0.226632	
0.514423	0.656566	0.913923	0.599189	0.324989	2.157719	0.213174	
0.531250	0.599010	0.978327	0.597201	0.310538	2.240177	0.194082	
0.548077	0.545930	1.030695	0.592383	0.302404	2.373271	0.174718	
0.559568	0.505495	1.071169	0.586866	0.296863	2.499461	0.159643	
0.565432	0.485696	1.090816	0.583327	0.294367	2.571451	0.152166	
0.576923	0.453726	1.112207	0.574579	0.293949	2.734185	0.139312	
0.593750	0.402072	1.150236	0.557607	0.291627	3.035415	0.119087	
0.610577	0.357891	1.168040	0.536116	0.291978	3.390193	0.101686	
0.622068	0.330817	1.169566	0.519062	0.292802	3.662516	0.091174	
0.627932	0.315915	1.173034	0.509720	0.292369	3.821751	0.085600	
0.639423	0.292702	1.162952	0.490672	0.292739	4.116158	0.076930	
0.656250	0.262539	1.133585	0.460993	0.292310	4.561946	0.066085	
0.673077	0.236829	1.089256	0.430369	0.289873	4.998850	0.057324	
0.684568	0.222555	1.048272	0.409399	0.287119	5.261917	0.052687	
0.690432	0.216009	1.024516	0.398703	0.285338	5.383676	0.050633	
0.701923	0.203709	0.976881	0.377995	0.280796	5.607245	0.046917	
0.718750	0.189390	0.896854	0.348476	0.272308	5.840011	0.042869	
0.735577	0.177510	0.810738	0.319955	0.261617	5.982810	0.039788	
0.747068	0.170602	0.749914	0.301150	0.253180	6.018321	0.038171	
0.752932	0.167644	0.718209	0.291791	0.248554	6.010139	0.037552	
0.764423	0.162041	0.655549	0.273750	0.238932	5.974709	0.036434	
0.781250	0.154992	0.563922	0.248333	0.223689	5.847717	0.035256	
0.798077	0.149187	0.473402	0.224140	0.207423	5.633523	0.034592	
0.809568	0.145710	0.413176	0.208428	0.195991	5.446842	0.034365	
0.815432	0.144071	0.383347	0.200727	0.190141	5.344284	0.034305	
0.826923	0.141294	0.327230	0.186349	0.178784	5.126320	0.034350	
0.843750	0.137796	0.251811	0.167276	0.162907	4.788910	0.034652	
0.860577	0.135086	0.187413	0.151060	0.148687	4.457754	0.035196	
0.872068	0.133651	0.150554	0.141754	0.140239	4.250459	0.035649	
0.877932	0.133005	0.133866	0.137551	0.136359	4.155136	0.035875	
0.889423	0.131970	0.105698	0.130375	0.129637	3.979822	0.036359	
0.906250	0.130858	0.073672	0.122100	0.121744	3.770135	0.037023	
0.923077	0.130087	0.050604	0.116026	0.115859	3.609942	0.037597	
0.934568	0.129718	0.038977	0.112888	0.112790	3.525129	0.037930	
0.940432	0.129570	0.034079	0.111542	0.111467	3.488506	0.038081	
0.951923	0.129320	0.026031	0.109322	0.109279	3.427349	0.038337	
0.968750	0.129069	0.017489	0.106893	0.106873	3.359410	0.038640	
0.985577	0.128904	0.011644	0.105185	0.105176	3.310777	0.038866	
0.997068	0.128824	0.008756	0.104325	0.104320	3.285592	0.038987	
