TITLE = "DG1DMBX16-P4RK4w100iv80"
VARIABLES = "x" "Density" "Velocity in x" "Energy" "Pressure" "Temperature" "Fugacity"
ZONE T = "Final Time 0.10"
I = 80, J = 1, K = 1, F = POINT

0.002932	0.999998	0.000004	0.999986	0.999986	3.999951	0.282096	
0.014423	0.999997	0.000009	0.999980	0.999980	3.999932	0.282096	
0.031250	0.999994	0.000020	0.999961	0.999961	3.999867	0.282098	
0.048077	0.999988	0.000045	0.999918	0.999918	3.999721	0.282101	
0.059568	0.999979	0.000077	0.999862	0.999862	3.999532	0.282105	
0.065432	0.999972	0.000102	0.999819	0.999819	3.999391	0.282108	
0.076923	0.999950	0.000177	0.999692	0.999692	3.998966	0.282117	
0.093750	0.999887	0.000390	0.999333	0.999333	3.997781	0.282141	
0.110577	0.999746	0.000859	0.998565	0.998565	3.995273	0.282190	
0.122068	0.999564	0.001452	0.997613	0.997611	3.992188	0.282247	
0.127932	0.999427	0.001890	0.996918	0.996916	3.989952	0.282288	
0.139423	0.999036	0.003124	0.994997	0.994992	3.983808	0.282395	
0.156250	0.998009	0.006289	0.990200	0.990180	3.968623	0.282644	
0.173077	0.996103	0.011986	0.981874	0.981802	3.942575	0.283034	
0.184568	0.994047	0.017979	0.973401	0.973241	3.916275	0.283397	
0.190432	0.992696	0.021859	0.968043	0.967806	3.899707	0.283612	
0.201923	0.989344	0.031328	0.955293	0.954808	3.860367	0.284091	
0.218750	0.982461	0.050284	0.930955	0.929713	3.785238	0.284901	
0.235577	0.972876	0.075968	0.900007	0.897199	3.688852	0.285783	
0.247068	0.964644	0.097557	0.875533	0.870942	3.611456	0.286385	
0.252932	0.959907	0.109832	0.862180	0.856390	3.568640	0.286684	
0.264423	0.949572	0.136312	0.834671	0.825849	3.478828	0.287234	
0.281250	0.931996	0.180562	0.792322	0.777129	3.335332	0.287919	
0.298077	0.911716	0.230733	0.749277	0.725008	3.180850	0.288412	
0.309568	0.896461	0.267978	0.720451	0.688262	3.071018	0.288613	
0.315432	0.888276	0.287816	0.706115	0.669323	3.014034	0.288668	
0.326923	0.871531	0.328128	0.679054	0.632136	2.901271	0.288678	
0.343750	0.845544	0.390030	0.642561	0.578248	2.735507	0.288431	
0.360577	0.818220	0.454368	0.610600	0.526139	2.572117	0.287839	
0.372068	0.799053	0.499057	0.591680	0.492175	2.463790	0.287210	
0.377932	0.789186	0.521921	0.582973	0.475486	2.410005	0.286811	
0.389423	0.769802	0.566507	0.567785	0.444259	2.308431	0.285855	
0.406250	0.741762	0.630137	0.549935	0.402668	2.171414	0.284000	
0.423077	0.714836	0.689815	0.536957	0.366882	2.052956	0.281476	
0.434568	0.697521	0.727058	0.530567	0.346207	1.985356	0.279295	
0.440432	0.689089	0.744707	0.527976	0.336895	1.955597	0.278010	
0.451923	0.673457	0.776270	0.524026	0.321115	1.907263	0.275125	
0.468750	0.652375	0.815072	0.520310	0.303610	1.861568	0.269763	
0.485577	0.632367	0.845882	0.518126	0.291892	1.846345	0.262565	
0.497068	0.617970	0.863773	0.516967	0.286432	1.854019	0.256056	
0.502932	0.610009	0.872322	0.516366	0.284275	1.864072	0.252075	
0.514423	0.592261	0.888757	0.514876	0.280966	1.897579	0.242571	
0.531250	0.559123	0.913952	0.511325	0.277805	1.987433	0.223762	
0.548077	0.514664	0.942367	0.504611	0.276085	2.145753	0.198225	
0.559568	0.477864	0.963483	0.497434	0.275633	2.307210	0.177495	
0.565432	0.457454	0.974429	0.492797	0.275617	2.410011	0.166251	
0.576923	0.415690	0.995235	0.481862	0.275994	2.655767	0.143913	
0.593750	0.354870	1.020086	0.461967	0.277333	3.126022	0.113240	
0.610577	0.300968	1.032644	0.439609	0.279139	3.709886	0.088159	
0.622068	0.270408	1.031765	0.424252	0.280322	4.146661	0.074920	
0.627932	0.256960	1.028446	0.416710	0.280816	4.371349	0.069340	
0.639423	0.234648	1.016676	0.402779	0.281509	4.798830	0.060433	
0.656250	0.210586	0.990481	0.385019	0.281722	5.351195	0.051360	
0.673077	0.194548	0.959405	0.370541	0.281005	5.777602	0.045664	
0.684568	0.186975	0.938160	0.362355	0.280073	5.991670	0.043096	
0.690432	0.183895	0.927663	0.358607	0.279480	6.079115	0.042080	
0.701923	0.179064	0.908056	0.351934	0.278109	6.212498	0.040532	
0.718750	0.174020	0.881159	0.343140	0.275582	6.334487	0.039009	
0.735577	0.170399	0.854546	0.334484	0.272267	6.391280	0.038028	
0.747068	0.168302	0.834807	0.327977	0.269332	6.401165	0.037531	
0.752932	0.167274	0.823775	0.324314	0.267557	6.398074	0.037310	
0.764423	0.165181	0.798809	0.315966	0.263266	6.375224	0.036909	
0.781250	0.161690	0.751200	0.300119	0.254498	6.295957	0.036356	
0.798077	0.157105	0.681072	0.277419	0.240982	6.135569	0.035784	
0.809568	0.153067	0.613619	0.256468	0.227651	5.949072	0.035406	
0.815432	0.150664	0.571397	0.243731	0.219136	5.817867	0.035241	
0.826923	0.145295	0.471403	0.214954	0.198810	5.473277	0.035039	
0.843750	0.136812	0.294090	0.168191	0.162275	4.744458	0.035437	
0.860577	0.130291	0.140354	0.131434	0.130150	3.995693	0.036774	
0.872068	0.127743	0.075592	0.116800	0.116435	3.645910	0.037745	
0.877932	0.127051	0.056589	0.112515	0.112312	3.535956	0.038120	
0.889423	0.126132	0.031803	0.107054	0.106990	3.392951	0.038633	
0.906250	0.125471	0.013720	0.103104	0.103092	3.286575	0.039048	
0.923077	0.125217	0.006427	0.101472	0.101469	3.241379	0.039240	
0.934568	0.125131	0.003902	0.100904	0.100903	3.225522	0.039309	
0.940432	0.125099	0.003034	0.100714	0.100713	3.220264	0.039331	
0.951923	0.125061	0.001886	0.100450	0.100449	3.212804	0.039365	
0.968750	0.125031	0.000962	0.100238	0.100238	3.206812	0.039392	
0.985577	0.125017	0.000479	0.100133	0.100133	3.203808	0.039406	
0.997068	0.125013	0.000265	0.100094	0.100094	3.202694	0.039411	
