TITLE = "DG1DMBX64-P3RK4w10iv80"
VARIABLES = "x" "Density" "Velocity in x" "Energy" "Pressure" "Temperature" "Fugacity"
ZONE T = "Final Time 0.10"
I = 256, J = 1, K = 1, F = POINT

0.001085	0.999825	0.000885	0.997820	0.997819	3.991976	0.282329	
0.005156	0.999827	0.000872	0.997850	0.997850	3.992092	0.282325	
0.010469	0.999820	0.000899	0.997793	0.997792	3.991887	0.282330	
0.014540	0.999788	0.001046	0.997455	0.997454	3.990663	0.282365	
0.016710	0.999759	0.001179	0.997150	0.997149	3.989558	0.282396	
0.020781	0.999700	0.001446	0.996544	0.996543	3.987368	0.282456	
0.026094	0.999642	0.001705	0.995962	0.995961	3.985270	0.282514	
0.030165	0.999632	0.001746	0.995879	0.995877	3.984975	0.282522	
0.032335	0.999635	0.001731	0.995916	0.995915	3.985113	0.282518	
0.036406	0.999625	0.001771	0.995836	0.995834	3.984829	0.282525	
0.041719	0.999557	0.002066	0.995203	0.995201	3.982569	0.282586	
0.045790	0.999450	0.002527	0.994210	0.994207	3.979016	0.282682	
0.047960	0.999388	0.002792	0.993646	0.993642	3.977001	0.282736	
0.052031	0.999302	0.003159	0.992871	0.992866	3.974239	0.282810	
0.057344	0.999254	0.003358	0.992463	0.992457	3.972793	0.282848	
0.061415	0.999254	0.003355	0.992484	0.992478	3.972877	0.282845	
0.063585	0.999237	0.003423	0.992350	0.992344	3.972407	0.282857	
0.067656	0.999138	0.003826	0.991537	0.991530	3.969540	0.282931	
0.072969	0.998908	0.004763	0.989644	0.989633	3.962860	0.283104	
0.077040	0.998705	0.005582	0.988006	0.987991	3.957086	0.283253	
0.079210	0.998630	0.005883	0.987412	0.987395	3.954999	0.283306	
0.083281	0.998559	0.006162	0.986872	0.986853	3.953108	0.283354	
0.088594	0.998518	0.006318	0.986592	0.986572	3.952146	0.283377	
0.092665	0.998420	0.006694	0.985884	0.985862	3.949687	0.283437	
0.094835	0.998298	0.007165	0.984989	0.984964	3.946572	0.283514	
0.098906	0.997980	0.008382	0.982688	0.982653	3.938570	0.283712	
0.104219	0.997538	0.010062	0.979537	0.979486	3.927617	0.283981	
0.108290	0.997322	0.010873	0.978043	0.977984	3.922443	0.284107	
0.110460	0.997278	0.011035	0.977754	0.977693	3.921445	0.284131	
0.114531	0.997209	0.011287	0.977312	0.977249	3.919934	0.284166	
0.119844	0.996960	0.012191	0.975718	0.975644	3.914478	0.284293	
0.123915	0.996497	0.013863	0.972756	0.972660	3.904315	0.284530	
0.126085	0.996171	0.015030	0.970703	0.970591	3.897285	0.284694	
0.130156	0.995607	0.017044	0.967189	0.967044	3.885244	0.284973	
0.135469	0.995110	0.018807	0.964147	0.963971	3.874831	0.285213	
0.139540	0.994980	0.019261	0.963394	0.963209	3.872276	0.285270	
0.141710	0.994907	0.019516	0.962970	0.962781	3.870838	0.285302	
0.145781	0.994537	0.020782	0.960881	0.960667	3.863774	0.285457	
0.151094	0.993581	0.024017	0.955577	0.955290	3.845846	0.285846	
0.155165	0.992580	0.027382	0.950111	0.949738	3.827353	0.286247	
0.157335	0.992121	0.028909	0.947658	0.947244	3.819065	0.286425	
0.161406	0.991555	0.030799	0.944636	0.944166	3.808829	0.286646	
0.166719	0.991160	0.032112	0.942581	0.942070	3.801891	0.286793	
0.170790	0.990784	0.033329	0.940718	0.940168	3.795651	0.286920	
0.172960	0.990342	0.034749	0.938552	0.937954	3.788405	0.287066	
0.177031	0.989106	0.038667	0.932646	0.931906	3.768682	0.287457	
0.182344	0.987199	0.044672	0.923699	0.922714	3.738717	0.288050	
0.186415	0.986053	0.048258	0.918434	0.917285	3.721041	0.288398	
0.188585	0.985725	0.049289	0.916930	0.915733	3.715976	0.288499	
0.192656	0.985280	0.050694	0.914890	0.913624	3.709093	0.288636	
0.197969	0.984341	0.053552	0.910882	0.909471	3.695757	0.288881	
0.202040	0.982742	0.058331	0.904284	0.902613	3.673854	0.289270	
0.204210	0.981569	0.061799	0.899559	0.897685	3.658163	0.289544	
0.208281	0.979425	0.068120	0.891036	0.888764	3.629735	0.290041	
0.213594	0.977335	0.074280	0.882827	0.880130	3.602165	0.290527	
0.217665	0.976632	0.076367	0.880074	0.877226	3.592862	0.290694	
0.219835	0.976320	0.077305	0.878835	0.875918	3.588651	0.290771	
0.223906	0.975079	0.080854	0.874339	0.871152	3.573669	0.291010	
0.229219	0.972021	0.089398	0.863788	0.859904	3.538623	0.291530	
0.233290	0.968771	0.098402	0.852888	0.848198	3.502160	0.292064	
0.235460	0.967247	0.102606	0.847880	0.842788	3.485308	0.292309	
0.239531	0.965276	0.108084	0.841363	0.835725	3.463153	0.292645	
0.244844	0.963830	0.112135	0.836589	0.830529	3.446785	0.292899	
0.248915	0.962639	0.115396	0.832868	0.826459	3.434138	0.293076	
0.251085	0.961328	0.118886	0.828985	0.822191	3.421065	0.293235	
0.255156	0.957749	0.128249	0.818844	0.810968	3.386972	0.293610	
0.260469	0.952301	0.142431	0.803837	0.794178	3.335826	0.294170	
0.264540	0.949064	0.150859	0.795100	0.784301	3.305577	0.294508	
0.266710	0.948142	0.153306	0.792554	0.781412	3.296606	0.294622	
0.270781	0.946853	0.156759	0.788963	0.777330	3.283844	0.294792	
0.276094	0.944249	0.163395	0.782455	0.769850	3.261215	0.295000	
0.280165	0.940003	0.173923	0.772538	0.758321	3.226889	0.295231	
0.282335	0.936982	0.181317	0.765765	0.750363	3.203316	0.295363	
0.286406	0.931632	0.194418	0.753982	0.736375	3.161656	0.295605	
0.291719	0.926657	0.206695	0.743133	0.723339	3.122357	0.295871	
0.295790	0.925120	0.210610	0.739643	0.719125	3.109327	0.295999	
0.297960	0.924344	0.212594	0.737880	0.716992	3.102705	0.296066	
0.302031	0.921227	0.220036	0.731776	0.709475	3.080568	0.296126	
0.307344	0.913899	0.237099	0.718465	0.692777	3.032184	0.296105	
0.311415	0.906589	0.254035	0.705772	0.676520	2.984900	0.296054	
0.313585	0.903384	0.261436	0.700387	0.669514	2.964472	0.296022	
0.317656	0.899498	0.270580	0.693708	0.660780	2.938440	0.296051	
0.322969	0.896802	0.277064	0.688967	0.654546	2.919468	0.296121	
0.327040	0.894092	0.283329	0.684662	0.648775	2.902499	0.296088	
0.329210	0.891030	0.290125	0.680261	0.642761	2.885472	0.295944	
0.333281	0.883293	0.307093	0.669744	0.628094	2.844330	0.295488	
0.338594	0.872502	0.330851	0.655652	0.607899	2.786923	0.294869	
0.342665	0.866932	0.343150	0.648618	0.597576	2.757198	0.294562	
0.344835	0.865561	0.346274	0.646788	0.594896	2.749179	0.294524	
0.348906	0.863441	0.351203	0.643895	0.590645	2.736239	0.294497	
0.354219	0.858076	0.362764	0.637857	0.581397	2.710236	0.294068	
0.358290	0.849272	0.381158	0.629017	0.567325	2.672054	0.293123	
0.360460	0.843535	0.393058	0.623604	0.558444	2.648112	0.292456	
0.364531	0.834390	0.412230	0.615115	0.544219	2.608943	0.291449	
0.369844	0.827088	0.427731	0.608432	0.532772	2.576616	0.290705	
0.373915	0.825212	0.431805	0.606625	0.529692	2.567545	0.290557	
0.376085	0.823762	0.434986	0.605251	0.527318	2.560535	0.290443	
0.380156	0.817680	0.447334	0.600631	0.518819	2.538005	0.289576	
0.385469	0.804183	0.474140	0.591562	0.501168	2.492808	0.287366	
0.389540	0.792191	0.497913	0.584199	0.486000	2.453952	0.285313	
0.391710	0.787916	0.506512	0.581622	0.480550	2.439599	0.284607	
0.395781	0.783447	0.515731	0.578785	0.474594	2.423108	0.283954	
0.401094	0.780096	0.522490	0.576762	0.470281	2.411399	0.283425	
0.405165	0.774594	0.533141	0.574030	0.463945	2.395810	0.282340	
0.407335	0.769246	0.543479	0.571564	0.457958	2.381336	0.281242	
0.411406	0.756661	0.567220	0.566482	0.444758	2.351161	0.278410	
0.416719	0.741028	0.596807	0.560784	0.428815	2.314702	0.274797	
0.420790	0.735119	0.608084	0.558734	0.422823	2.300704	0.273434	
0.422960	0.734536	0.609491	0.558328	0.421895	2.297480	0.273409	
0.427031	0.731663	0.614933	0.557320	0.418983	2.290582	0.272749	
0.432344	0.721636	0.632946	0.554790	0.410239	2.273940	0.269994	
0.436415	0.707862	0.658025	0.551674	0.398423	2.251418	0.266162	
0.438585	0.700459	0.671390	0.550222	0.392351	2.240536	0.264017	
0.442656	0.689088	0.691734	0.548239	0.383375	2.225406	0.260613	
0.447969	0.681531	0.705058	0.547037	0.377640	2.216425	0.258276	
0.452040	0.681108	0.706190	0.546751	0.376916	2.213543	0.258284	
0.454210	0.678763	0.710415	0.546368	0.375086	2.210409	0.257577	
0.458281	0.667463	0.729241	0.545281	0.367805	2.204198	0.253645	
0.463594	0.647769	0.762834	0.543669	0.355196	2.193347	0.246770	
0.467665	0.636533	0.782399	0.542868	0.348041	2.187108	0.242835	
0.469835	0.631629	0.790106	0.542678	0.345525	2.188154	0.240906	
0.473906	0.626475	0.798289	0.542437	0.342821	2.188893	0.238900	
0.479219	0.623768	0.802829	0.542220	0.341200	2.187997	0.237916	
0.483290	0.616516	0.814494	0.541953	0.337454	2.189426	0.235074	
0.485460	0.605713	0.831338	0.541797	0.332485	2.195660	0.230627	
0.489531	0.588889	0.858112	0.541579	0.324763	2.205941	0.223698	
0.494844	0.575625	0.879003	0.541425	0.319048	2.217052	0.218111	
0.498915	0.572294	0.883226	0.541368	0.318148	2.223667	0.216526	
0.501085	0.568281	0.889186	0.541314	0.316657	2.228879	0.214756	
0.505156	0.564918	0.894345	0.541255	0.315329	2.232743	0.213300	
0.510469	0.551499	0.913536	0.541098	0.310972	2.255470	0.207182	
0.514540	0.534399	0.938303	0.540876	0.305630	2.287652	0.199341	
0.516710	0.523375	0.954751	0.540717	0.302176	2.309440	0.194305	
0.520781	0.515645	0.965151	0.540439	0.300273	2.329302	0.190618	
0.526094	0.512240	0.968617	0.540210	0.299913	2.341974	0.188846	
0.530165	0.506532	0.976134	0.539953	0.298631	2.358240	0.186096	
0.532335	0.501304	0.983541	0.539754	0.297285	2.372092	0.183637	
0.536406	0.489349	0.998205	0.538932	0.295135	2.412471	0.177751	
0.541719	0.468584	1.024551	0.537275	0.291337	2.486957	0.167640	
0.545790	0.456365	1.040323	0.536149	0.289194	2.534759	0.161722	
0.547960	0.453512	1.043253	0.535741	0.288945	2.548512	0.160277	
0.552031	0.452137	1.043608	0.535410	0.289194	2.558462	0.159480	
0.557344	0.443304	1.053285	0.534139	0.288237	2.600805	0.155086	
0.561415	0.430882	1.066846	0.532091	0.286884	2.663227	0.148963	
0.563585	0.422897	1.075251	0.530600	0.286131	2.706387	0.145032	
0.567656	0.408009	1.090132	0.527405	0.284969	2.793745	0.137722	
0.572969	0.396528	1.101507	0.524773	0.284216	2.867047	0.132124	
0.577040	0.392550	1.104695	0.523684	0.284160	2.895525	0.130154	
0.579210	0.391382	1.105037	0.523235	0.284275	2.905353	0.129547	
0.583281	0.384360	1.110477	0.521102	0.284114	2.956746	0.126112	
0.588594	0.367302	1.123337	0.515298	0.283551	3.087937	0.117927	
0.592665	0.353669	1.132765	0.510153	0.283247	3.203528	0.111483	
0.594835	0.347783	1.136020	0.507661	0.283247	3.257743	0.108711	
0.598906	0.341315	1.139513	0.504894	0.283297	3.320064	0.105684	
0.604219	0.336737	1.141524	0.502840	0.283442	3.366923	0.103538	
0.608290	0.331366	1.142890	0.499995	0.283580	3.423172	0.101046	
0.610460	0.326631	1.144121	0.497426	0.283644	3.473579	0.098877	
0.614531	0.313862	1.146889	0.490126	0.283706	3.615684	0.093125	
0.619844	0.299507	1.148045	0.481234	0.283857	3.790996	0.086787	
0.623915	0.292847	1.147444	0.476798	0.284013	3.879326	0.083886	
0.626085	0.291109	1.146838	0.475535	0.284096	3.903645	0.083128	
0.630156	0.288694	1.146437	0.473938	0.284220	3.938008	0.082078	
0.635469	0.280804	1.142724	0.467624	0.284284	4.049564	0.078727	
0.639540	0.271346	1.136710	0.459533	0.284229	4.189914	0.074790	
0.641710	0.265496	1.132388	0.454381	0.284158	4.281161	0.072394	
0.645781	0.256568	1.124207	0.446110	0.283979	4.427345	0.068795	
0.651094	0.251085	1.118102	0.440852	0.283904	4.522836	0.066610	
0.655165	0.248899	1.114984	0.438586	0.283872	4.562042	0.065746	
0.657335	0.247506	1.112974	0.437109	0.283815	4.586808	0.065201	
0.661406	0.241980	1.103858	0.430831	0.283405	4.684759	0.063076	
0.666719	0.231444	1.082844	0.417971	0.282281	4.878613	0.059118	
0.670790	0.224002	1.065769	0.408521	0.281303	5.023214	0.056388	
0.672960	0.221117	1.058407	0.404710	0.280860	5.080751	0.055346	
0.677031	0.218706	1.051858	0.401476	0.280488	5.129963	0.054479	
0.682344	0.216409	1.044841	0.398157	0.280031	5.175964	0.053667	
0.686415	0.212901	1.032932	0.392685	0.279108	5.243908	0.052454	
0.688585	0.209935	1.022458	0.388005	0.278269	5.302004	0.051439	
0.692656	0.203159	0.995867	0.376771	0.276029	5.434745	0.049167	
0.697969	0.196552	0.966973	0.365400	0.273509	5.566138	0.047003	
0.702040	0.193956	0.954517	0.360732	0.272375	5.617271	0.046171	
0.704210	0.193439	0.951738	0.359705	0.272096	5.626496	0.046010	
0.708281	0.192388	0.946009	0.357598	0.271511	5.645049	0.045685	
0.713594	0.188138	0.921381	0.348745	0.268886	5.716770	0.044394	
0.717665	0.183398	0.891855	0.338601	0.265664	5.794266	0.042985	
0.719835	0.180712	0.874064	0.332720	0.263689	5.836673	0.042202	
0.723906	0.177055	0.848110	0.324397	0.260720	5.890156	0.041159	
0.729219	0.175128	0.833384	0.319761	0.258946	5.914415	0.040628	
0.733290	0.174329	0.826452	0.317545	0.258009	5.920062	0.040423	
0.735460	0.173668	0.820744	0.315736	0.257243	5.924935	0.040253	
0.739531	0.170957	0.797171	0.308469	0.254149	5.946509	0.039553	
0.744844	0.166195	0.752991	0.295374	0.248258	5.975102	0.038359	
0.748915	0.163094	0.722097	0.286562	0.244042	5.985317	0.037611	
0.751085	0.162010	0.710577	0.283311	0.242410	5.985087	0.037362	
0.755156	0.161193	0.701245	0.280633	0.241000	5.980411	0.037188	
0.760469	0.160210	0.689283	0.277147	0.239088	5.969377	0.036996	
0.764540	0.158591	0.669700	0.271604	0.236040	5.953449	0.036671	
0.766710	0.157253	0.653407	0.267110	0.233541	5.940522	0.036401	
0.770781	0.154327	0.616277	0.257084	0.227777	5.903775	0.035834	
0.776094	0.151599	0.579426	0.247360	0.221911	5.855212	0.035347	
0.780165	0.150551	0.564100	0.243292	0.219339	5.827654	0.035185	
0.782335	0.150325	0.560317	0.242225	0.218628	5.817469	0.035163	
0.786406	0.149780	0.551457	0.239772	0.216998	5.795110	0.035103	
0.791719	0.147876	0.521553	0.231875	0.211763	5.728115	0.034859	
0.795790	0.145842	0.488765	0.223453	0.206033	5.650845	0.034614	
0.797960	0.144711	0.469984	0.218712	0.202730	5.603725	0.034490	
0.802031	0.143150	0.442989	0.211927	0.197881	5.529324	0.034346	
0.807344	0.142218	0.425679	0.207493	0.194608	5.473526	0.034296	
0.811415	0.141760	0.416468	0.205047	0.192753	5.438874	0.034294	
0.813585	0.141422	0.409805	0.203311	0.191436	5.414596	0.034289	
0.817656	0.140246	0.387039	0.197556	0.187052	5.334947	0.034257	
0.822969	0.138263	0.347608	0.187793	0.179439	5.191261	0.034237	
0.827040	0.136942	0.320354	0.181139	0.174112	5.085722	0.034260	
0.829210	0.136447	0.309760	0.178541	0.171994	5.042083	0.034283	
0.833281	0.135971	0.299051	0.175852	0.169772	4.994360	0.034327	
0.838594	0.135441	0.286690	0.172702	0.167136	4.936039	0.034394	
0.842665	0.134766	0.271112	0.168810	0.163857	4.863458	0.034477	
0.844835	0.134247	0.259171	0.165880	0.161372	4.808202	0.034541	
0.848906	0.133125	0.232898	0.159485	0.155875	4.683549	0.034705	
0.854219	0.132013	0.206010	0.152973	0.150172	4.550211	0.034916	
0.858290	0.131528	0.193803	0.149988	0.147518	4.486301	0.035035	
0.860460	0.131396	0.190307	0.149104	0.146724	4.466620	0.035077	
0.864531	0.131159	0.183978	0.147501	0.145281	4.430699	0.035155	
0.869844	0.130523	0.167292	0.143367	0.141540	4.337619	0.035358	
0.873915	0.129858	0.149671	0.139046	0.137591	4.238198	0.035588	
0.876085	0.129481	0.139573	0.136581	0.135319	4.180369	0.035729	
0.880156	0.128930	0.124520	0.132896	0.131897	4.092053	0.035959	
0.885469	0.128577	0.114597	0.130442	0.129598	4.031770	0.036128	
0.889540	0.128435	0.110443	0.129384	0.128601	4.005163	0.036208	
0.891710	0.128354	0.108054	0.128776	0.128027	3.989790	0.036254	
0.895781	0.128070	0.099805	0.126702	0.126064	3.937336	0.036414	
0.901094	0.127550	0.084532	0.122867	0.122411	3.838870	0.036728	
0.905165	0.127180	0.073533	0.120107	0.119763	3.766734	0.036971	
0.907335	0.127034	0.069109	0.118991	0.118687	3.737195	0.037074	
0.911406	0.126893	0.064801	0.117893	0.117627	3.707901	0.037179	
0.916719	0.126800	0.061859	0.117131	0.116889	3.687327	0.037255	
0.920790	0.126693	0.058459	0.116244	0.116027	3.663251	0.037346	
0.922960	0.126599	0.055494	0.115474	0.115279	3.642342	0.037425	
0.927031	0.126365	0.048065	0.113539	0.113393	3.589377	0.037631	
0.932344	0.126102	0.039583	0.111320	0.111221	3.527971	0.037878	
0.936415	0.125982	0.035659	0.110287	0.110207	3.499133	0.037997	
0.938585	0.125955	0.034740	0.110042	0.109966	3.492234	0.038027	
0.942656	0.125934	0.034042	0.109855	0.109782	3.486954	0.038049	
0.947969	0.125862	0.031591	0.109191	0.109128	3.468189	0.038130	
0.952040	0.125759	0.028108	0.108243	0.108193	3.441273	0.038248	
0.954210	0.125690	0.025738	0.107596	0.107554	3.422849	0.038329	
0.958281	0.125571	0.021631	0.106467	0.106438	3.390530	0.038475	
0.963594	0.125488	0.018765	0.105676	0.105654	3.367758	0.038580	
0.967665	0.125468	0.018059	0.105478	0.105458	3.362057	0.038606	
0.969835	0.125466	0.017973	0.105454	0.105433	3.361339	0.038610	
0.973906	0.125446	0.017279	0.105257	0.105239	3.355656	0.038636	
0.979219	0.125378	0.014800	0.104547	0.104533	3.334988	0.038734	
0.983290	0.125312	0.012411	0.103858	0.103848	3.314870	0.038831	
0.985460	0.125279	0.011224	0.103513	0.103505	3.304784	0.038881	
0.989531	0.125242	0.009835	0.103106	0.103100	3.292839	0.038939	
0.994844	0.125228	0.009343	0.102960	0.102954	3.288543	0.038961	
0.998915	0.125225	0.009230	0.102924	0.102919	3.287492	0.038966	
