TITLE = "DG1DBEX32-P4RK4w1000iv80"
VARIABLES = "x" "Density" "Velocity in x" "Energy" "Pressure" "Temperature" "Fugacity"
ZONE T = "Final Time 0.10"
I = 160, J = 1, K = 1, F = POINT

0.001466	1.264994	0.000000	1.120324	1.120324	3.993856	0.283063	
0.007211	1.264994	-0.000000	1.120324	1.120324	3.993856	0.283063	
0.015625	1.264994	0.000000	1.120324	1.120324	3.993856	0.283063	
0.024039	1.264994	0.000000	1.120324	1.120324	3.993856	0.283063	
0.029784	1.264994	-0.000000	1.120324	1.120324	3.993856	0.283063	
0.032716	1.264994	-0.000000	1.120324	1.120324	3.993856	0.283063	
0.038461	1.264994	0.000000	1.120324	1.120324	3.993856	0.283063	
0.046875	1.264994	0.000000	1.120324	1.120324	3.993856	0.283063	
0.055289	1.264994	-0.000000	1.120324	1.120324	3.993856	0.283063	
0.061034	1.264994	0.000000	1.120324	1.120324	3.993856	0.283063	
0.063966	1.264994	0.000000	1.120324	1.120324	3.993856	0.283063	
0.069711	1.264994	-0.000000	1.120324	1.120324	3.993856	0.283063	
0.078125	1.264994	-0.000000	1.120324	1.120324	3.993856	0.283063	
0.086539	1.264994	0.000000	1.120324	1.120324	3.993856	0.283063	
0.092284	1.264994	0.000000	1.120324	1.120324	3.993856	0.283063	
0.095216	1.264994	-0.000000	1.120324	1.120324	3.993856	0.283063	
0.100961	1.264994	-0.000000	1.120324	1.120324	3.993856	0.283063	
0.109375	1.264994	0.000000	1.120324	1.120324	3.993856	0.283063	
0.117789	1.264994	-0.000000	1.120324	1.120324	3.993856	0.283063	
0.123534	1.264994	-0.000000	1.120324	1.120324	3.993857	0.283063	
0.126466	1.264994	0.000000	1.120324	1.120324	3.993856	0.283063	
0.132211	1.264994	0.000000	1.120323	1.120323	3.993855	0.283063	
0.140625	1.264994	-0.000000	1.120324	1.120324	3.993857	0.283063	
0.149039	1.264994	0.000000	1.120324	1.120324	3.993856	0.283063	
0.154784	1.264993	0.000001	1.120322	1.120322	3.993852	0.283063	
0.157716	1.264994	0.000000	1.120324	1.120324	3.993855	0.283063	
0.163461	1.264995	-0.000002	1.120326	1.120326	3.993863	0.283063	
0.171875	1.264994	-0.000000	1.120324	1.120324	3.993858	0.283063	
0.180289	1.264995	-0.000002	1.120328	1.120328	3.993862	0.283063	
0.186034	1.265004	-0.000019	1.120351	1.120351	3.993921	0.283063	
0.188966	1.265006	-0.000021	1.120351	1.120351	3.993933	0.283063	
0.194711	1.264993	0.000003	1.120321	1.120321	3.993850	0.283063	
0.203125	1.265004	-0.000019	1.120351	1.120351	3.993919	0.283063	
0.211539	1.264945	0.000106	1.120151	1.120151	3.993549	0.283063	
0.217284	1.264687	0.000617	1.119315	1.119314	3.991375	0.283079	
0.220216	1.264427	0.001108	1.118537	1.118536	3.989197	0.283094	
0.225961	1.263647	0.002657	1.116137	1.116133	3.983193	0.283124	
0.234375	1.261405	0.007021	1.109416	1.109385	3.966376	0.283199	
0.242789	1.257281	0.014932	1.097524	1.097384	3.936741	0.283305	
0.248534	1.253078	0.022896	1.085844	1.085516	3.907282	0.283396	
0.251466	1.250469	0.027815	1.078760	1.078276	3.889449	0.283441	
0.257211	1.244406	0.039168	1.062727	1.061773	3.848687	0.283532	
0.265625	1.233364	0.059671	1.034802	1.032606	3.776591	0.283653	
0.274039	1.220019	0.084290	1.002884	0.998550	3.692301	0.283743	
0.279784	1.209788	0.103064	0.979633	0.973207	3.629161	0.283788	
0.282716	1.204271	0.113159	0.967502	0.959792	3.595652	0.283804	
0.288461	1.192878	0.133968	0.943245	0.932541	3.526984	0.283834	
0.296875	1.174991	0.166579	0.907304	0.891002	3.421073	0.283864	
0.305289	1.156107	0.200962	0.871923	0.848578	3.311543	0.283879	
0.311034	1.142847	0.225054	0.848616	0.819674	3.235577	0.283894	
0.313966	1.135962	0.237594	0.837009	0.804946	3.196712	0.283894	
0.319711	1.122276	0.262498	0.814884	0.776219	3.120149	0.283894	
0.328125	1.101770	0.299660	0.784073	0.734605	3.007980	0.283864	
0.336539	1.080860	0.337558	0.755316	0.693736	2.895678	0.283834	
0.342284	1.066390	0.363789	0.736962	0.666398	2.819043	0.283819	
0.345216	1.058949	0.377273	0.728006	0.652644	2.780218	0.283804	
0.350961	1.044280	0.403839	0.711238	0.626084	2.704458	0.283773	
0.359375	1.022617	0.443051	0.688604	0.588237	2.594823	0.283713	
0.367789	1.000796	0.482546	0.668209	0.551692	2.486615	0.283653	
0.373534	0.985827	0.509632	0.655554	0.527532	2.413770	0.283607	
0.376466	0.978174	0.523477	0.649487	0.515464	2.377082	0.283577	
0.382211	0.963166	0.550626	0.638353	0.492342	2.305636	0.283532	
0.390625	0.941202	0.590348	0.623806	0.459796	2.203472	0.283441	
0.399039	0.919340	0.629866	0.611254	0.428889	2.104012	0.283350	
0.404784	0.904543	0.656607	0.603787	0.408798	2.038207	0.283275	
0.407716	0.897057	0.670132	0.600307	0.398884	2.005428	0.283230	
0.413461	0.882565	0.696311	0.594117	0.380162	1.942476	0.283154	
0.421875	0.861943	0.733514	0.586495	0.354614	1.855278	0.283003	
0.430289	0.842472	0.768552	0.580482	0.331669	1.775054	0.282837	
0.436034	0.830203	0.790550	0.577261	0.317835	1.726075	0.282686	
0.438966	0.824391	0.800942	0.575879	0.311452	1.703381	0.282595	
0.444711	0.814088	0.819261	0.573665	0.300462	1.663782	0.282414	
0.453125	0.802290	0.840013	0.571507	0.288450	1.620532	0.282097	
0.461539	0.794917	0.852646	0.570383	0.281429	1.595438	0.281780	
0.467284	0.792220	0.857038	0.570034	0.279085	1.587439	0.281583	
0.470216	0.791364	0.858343	0.569928	0.278409	1.585306	0.281493	
0.475961	0.790337	0.859783	0.569836	0.277717	1.583135	0.281357	
0.484375	0.789667	0.860332	0.569752	0.277507	1.583260	0.281160	
0.492789	0.789321	0.860313	0.569694	0.277590	1.584247	0.280994	
0.498534	0.789099	0.860273	0.569662	0.277667	1.585088	0.280873	
0.501466	0.788981	0.860232	0.569647	0.277724	1.585478	0.280813	
0.507211	0.788702	0.860112	0.569599	0.277862	1.586740	0.280647	
0.515625	0.788176	0.859955	0.569453	0.278016	1.588527	0.280375	
0.524039	0.787510	0.859949	0.569257	0.278070	1.589968	0.280088	
0.529784	0.786936	0.859970	0.569101	0.278113	1.591132	0.279846	
0.532716	0.786614	0.859931	0.569007	0.278164	1.592011	0.279695	
0.538461	0.785580	0.859964	0.568749	0.278266	1.594365	0.279242	
0.546875	0.782452	0.860314	0.567820	0.278258	1.599605	0.278003	
0.555289	0.774814	0.861515	0.565797	0.278261	1.612897	0.274952	
0.561034	0.760122	0.863522	0.561774	0.278373	1.639705	0.269031	
0.563966	0.746328	0.865540	0.557868	0.278308	1.665240	0.263488	
0.569711	0.702531	0.871433	0.545034	0.278284	1.753441	0.245725	
0.578125	0.590056	0.885588	0.509386	0.278005	2.040811	0.199384	
0.586539	0.456738	0.900985	0.463602	0.278218	2.575457	0.143949	
0.592284	0.375925	0.908861	0.433668	0.278406	3.089521	0.111066	
0.595216	0.342373	0.910614	0.420559	0.278608	3.376344	0.097774	
0.600961	0.289066	0.911329	0.398834	0.278797	3.969832	0.077338	
0.609375	0.237585	0.904821	0.376230	0.278975	4.798405	0.058638	
0.617789	0.207940	0.893536	0.362015	0.279005	5.460979	0.048473	
0.623534	0.195755	0.885555	0.355746	0.278990	5.792430	0.044440	
0.626466	0.191266	0.881638	0.353333	0.278999	5.926076	0.042975	
0.632211	0.184957	0.875088	0.349845	0.279027	6.125755	0.040935	
0.640625	0.179741	0.868086	0.346776	0.279052	6.300346	0.039274	
0.649039	0.177288	0.864072	0.345248	0.279065	6.384487	0.038504	
0.654784	0.176455	0.862649	0.344723	0.279068	6.412206	0.038247	
0.657716	0.176198	0.862220	0.344538	0.279044	6.424799	0.038156	
0.663461	0.175895	0.862129	0.344288	0.278920	6.428879	0.038081	
0.671875	0.175712	0.862788	0.344237	0.278837	6.436471	0.038020	
0.680289	0.175756	0.862703	0.344308	0.278904	6.434485	0.038035	
0.686034	0.175821	0.862250	0.344358	0.278999	6.434003	0.038050	
0.688966	0.175845	0.861972	0.344397	0.279072	6.435689	0.038050	
0.694711	0.175918	0.861445	0.344478	0.279205	6.435791	0.038066	
0.703125	0.175855	0.861672	0.344554	0.279269	6.441701	0.038035	
0.711539	0.175851	0.862387	0.344513	0.279122	6.436130	0.038050	
0.717284	0.175895	0.862587	0.344542	0.279104	6.434127	0.038066	
0.720216	0.175899	0.862756	0.344567	0.279102	6.434427	0.038066	
0.725961	0.175950	0.862824	0.344633	0.279139	6.432887	0.038081	
0.734375	0.175895	0.863371	0.344805	0.279248	6.439415	0.038050	
0.742789	0.175910	0.863534	0.344984	0.279397	6.440462	0.038050	
0.748534	0.176020	0.862636	0.345206	0.279714	6.443309	0.038066	
0.751466	0.176097	0.862148	0.345290	0.279844	6.443683	0.038081	
0.757211	0.176095	0.862871	0.345312	0.279756	6.443503	0.038081	
0.765625	0.175975	0.864648	0.345426	0.279646	6.445216	0.038050	
0.774039	0.175993	0.865085	0.345604	0.279750	6.446588	0.038050	
0.779784	0.176023	0.866211	0.345553	0.279516	6.438232	0.038081	
0.782716	0.176066	0.865206	0.345668	0.279768	6.441395	0.038081	
0.788461	0.176225	0.866005	0.346315	0.280233	6.447783	0.038096	
0.796875	0.175936	0.866074	0.345909	0.279926	6.452936	0.038020	
0.805289	0.175927	0.858975	0.344882	0.279979	6.452274	0.038020	
0.811034	0.175741	0.851219	0.342093	0.278425	6.422847	0.038066	
0.813966	0.174351	0.843546	0.335744	0.273712	6.368318	0.037930	
0.819711	0.173102	0.832980	0.333747	0.273693	6.413146	0.037537	
0.828125	0.157239	0.585346	0.248744	0.221807	5.717901	0.036147	
0.836539	0.133672	0.109206	0.124520	0.123723	3.752516	0.037884	
0.842284	0.124104	-0.082248	0.088479	0.088059	2.879143	0.040090	
0.845216	0.129306	0.009636	0.102251	0.102245	3.209670	0.039576	
0.850961	0.130008	0.025460	0.105774	0.105732	3.298801	0.039259	
0.859375	0.127991	-0.010653	0.099859	0.099852	3.164551	0.039455	
0.867789	0.128881	0.002855	0.101716	0.101716	3.201130	0.039501	
0.873534	0.128973	0.007327	0.102678	0.102675	3.231075	0.039349	
0.876466	0.128278	-0.006094	0.100709	0.100707	3.186286	0.039410	
0.882211	0.128613	-0.000776	0.101218	0.101218	3.192890	0.039470	
0.890625	0.128664	0.000683	0.101514	0.101514	3.200440	0.039440	
0.899039	0.128603	-0.000623	0.101347	0.101346	3.197431	0.039440	
0.904784	0.128659	0.000285	0.101438	0.101438	3.200200	0.039440	
0.907716	0.128661	0.000499	0.101499	0.101499	3.200276	0.039440	
0.913461	0.128624	-0.000204	0.101396	0.101396	3.198443	0.039440	
0.921875	0.128640	0.000062	0.101429	0.101429	3.199264	0.039440	
0.930289	0.128636	-0.000003	0.101423	0.101423	3.199033	0.039440	
0.936034	0.128631	-0.000082	0.101410	0.101410	3.198824	0.039440	
0.938966	0.128640	0.000049	0.101428	0.101428	3.199235	0.039440	
0.944711	0.128636	0.000007	0.101424	0.101424	3.199073	0.039440	
0.953125	0.128636	-0.000007	0.101421	0.101421	3.199044	0.039440	
0.961539	0.128637	0.000007	0.101423	0.101423	3.199081	0.039440	
0.967284	0.128636	-0.000004	0.101422	0.101422	3.199047	0.039440	
0.970216	0.128636	-0.000006	0.101421	0.101421	3.199048	0.039440	
0.975961	0.128636	0.000002	0.101422	0.101422	3.199069	0.039440	
0.984375	0.128636	-0.000001	0.101422	0.101422	3.199059	0.039440	
0.992789	0.128636	0.000000	0.101422	0.101422	3.199062	0.039440	
0.998534	0.128636	0.000001	0.101422	0.101422	3.199065	0.039440	
