TITLE = "DG1DMBX16-P4RK3w10000iv20"
VARIABLES = "x" "Density" "Velocity in x" "Energy" "Pressure" "Temperature" "Fugacity"
ZONE T = "Final Time 0.10"
I = 80, J = 1, K = 1, F = POINT

0.002932	0.995989	-0.000001	0.912717	0.912717	3.665570	0.293500	
0.014423	0.995988	0.000000	0.912716	0.912716	3.665568	0.293500	
0.031250	0.995988	0.000000	0.912715	0.912715	3.665567	0.293500	
0.048077	0.995989	-0.000001	0.912717	0.912717	3.665572	0.293500	
0.059568	0.995987	0.000004	0.912711	0.912711	3.665555	0.293500	
0.065432	0.995988	0.000000	0.912716	0.912716	3.665568	0.293500	
0.076923	0.995990	-0.000003	0.912720	0.912720	3.665578	0.293500	
0.093750	0.995987	0.000004	0.912711	0.912711	3.665554	0.293500	
0.110577	0.995991	-0.000005	0.912723	0.912723	3.665587	0.293500	
0.122068	0.995994	-0.000013	0.912729	0.912729	3.665599	0.293501	
0.127932	0.995976	0.000028	0.912684	0.912684	3.665484	0.293500	
0.139423	0.995989	-0.000001	0.912716	0.912716	3.665569	0.293500	
0.156250	0.995996	-0.000017	0.912738	0.912738	3.665627	0.293500	
0.173077	0.995965	0.000055	0.912649	0.912649	3.665385	0.293501	
0.184568	0.996022	-0.000089	0.912823	0.912823	3.665876	0.293498	
0.190432	0.996039	-0.000104	0.912840	0.912840	3.665884	0.293503	
0.201923	0.995945	0.000101	0.912595	0.912595	3.665240	0.293501	
0.218750	0.996005	-0.000044	0.912771	0.912771	3.665729	0.293499	
0.235577	0.996045	-0.000129	0.912851	0.912851	3.665902	0.293504	
0.247068	0.995681	0.000750	0.911882	0.911882	3.663350	0.293499	
0.252932	0.995978	-0.000007	0.912715	0.912715	3.665600	0.293496	
0.264423	0.996246	-0.000611	0.913434	0.913434	3.667504	0.293499	
0.281250	0.995725	0.000629	0.911937	0.911937	3.663408	0.293509	
0.298077	0.996027	-0.000085	0.912962	0.912962	3.666418	0.293478	
0.309568	0.997332	-0.003210	0.916226	0.916220	3.674686	0.293532	
0.315432	0.995700	0.000647	0.911874	0.911874	3.663247	0.293508	
0.326923	0.994766	0.002968	0.909259	0.909255	3.656158	0.293517	
0.343750	0.997204	-0.002981	0.916437	0.916432	3.676005	0.293441	
0.360577	0.996666	-0.001419	0.913768	0.913767	3.667294	0.293631	
0.372068	0.990193	0.012851	0.898428	0.898346	3.628974	0.293260	
0.377932	0.993293	0.008153	0.904179	0.904146	3.641003	0.293692	
0.389423	1.000511	-0.011814	0.926251	0.926181	3.702831	0.293346	
0.406250	0.995845	0.001512	0.910489	0.910488	3.657145	0.293796	
0.423077	0.949427	0.109256	0.797325	0.791659	3.335312	0.293304	
0.434568	0.895266	0.231995	0.695384	0.671292	2.999294	0.291654	
0.440432	0.869153	0.295823	0.651072	0.613041	2.821327	0.291941	
0.451923	0.811117	0.441719	0.574550	0.495419	2.443146	0.292775	
0.468750	0.697494	0.692374	0.496596	0.329413	1.889126	0.286309	
0.485577	0.616203	0.903433	0.476555	0.225084	1.461105	0.287613	
0.497068	0.640453	0.864694	0.483717	0.244285	1.525698	0.292535	
0.502932	0.603548	0.917259	0.480805	0.226903	1.503795	0.277679	
0.514423	0.630276	0.891165	0.480401	0.230127	1.460481	0.294244	
0.531250	0.394929	0.895782	0.401062	0.242612	2.457267	0.142141	
0.548077	0.199605	0.865724	0.291390	0.216590	4.340386	0.054054	
0.559568	0.188354	0.633372	0.251923	0.214143	4.547664	0.049832	
0.565432	0.180756	0.599693	0.229466	0.196964	4.358652	0.048848	
0.576923	0.151284	0.495273	0.192955	0.174401	4.611209	0.039748	
0.593750	0.134122	0.176708	0.124814	0.122720	3.659961	0.039554	
0.610577	0.121122	-0.102877	0.087686	0.087045	2.874621	0.040305	
0.622068	0.122305	0.009572	0.098545	0.098539	3.222738	0.038438	
0.627932	0.133935	0.110326	0.113873	0.113058	3.376500	0.041123	
0.639423	0.124247	-0.000618	0.100298	0.100298	3.228973	0.039010	
0.656250	0.123836	-0.021857	0.094970	0.094940	3.066646	0.039897	
0.673077	0.126366	0.024992	0.102680	0.102641	3.249002	0.039553	
0.684568	0.124891	0.002511	0.098787	0.098786	3.163920	0.039614	
0.690432	0.123237	-0.034498	0.094380	0.094307	3.060984	0.039741	
0.701923	0.125226	0.005555	0.099546	0.099544	3.179669	0.039621	
0.718750	0.125095	0.002639	0.099107	0.099106	3.168989	0.039647	
0.735577	0.124637	-0.005328	0.098071	0.098069	3.147357	0.039637	
0.747068	0.125255	0.004826	0.099452	0.099451	3.175951	0.039654	
0.752932	0.125224	0.005148	0.099490	0.099489	3.177945	0.039631	
0.764423	0.124780	-0.002808	0.098383	0.098382	3.153786	0.039642	
0.781250	0.124994	0.000785	0.098894	0.098894	3.164756	0.039641	
0.798077	0.124956	0.000194	0.098804	0.098804	3.162853	0.039641	
0.809568	0.124854	-0.001552	0.098572	0.098572	3.157993	0.039639	
0.815432	0.124974	0.000483	0.098830	0.098830	3.163203	0.039644	
0.826923	0.124967	0.000360	0.098835	0.098835	3.163580	0.039640	
0.843750	0.124931	-0.000243	0.098743	0.098743	3.161521	0.039641	
0.860577	0.124955	0.000162	0.098803	0.098803	3.162834	0.039641	
0.872068	0.124947	0.000061	0.098786	0.098786	3.162470	0.039640	
0.877932	0.124932	-0.000252	0.098745	0.098745	3.161582	0.039641	
0.889423	0.124949	0.000056	0.098787	0.098787	3.162486	0.039641	
0.906250	0.124945	-0.000006	0.098778	0.098778	3.162296	0.039641	
0.923077	0.124945	-0.000016	0.098777	0.098777	3.162274	0.039641	
0.934568	0.124948	0.000045	0.098785	0.098785	3.162439	0.039641	
0.940432	0.124945	-0.000008	0.098779	0.098779	3.162311	0.039641	
0.951923	0.124945	-0.000010	0.098778	0.098778	3.162281	0.039641	
0.968750	0.124946	0.000006	0.098780	0.098780	3.162338	0.039641	
0.985577	0.124945	-0.000004	0.098779	0.098779	3.162303	0.039641	
0.997068	0.124945	0.000001	0.098779	0.098779	3.162312	0.039641	
