TITLE = "DG1DMBX64-P3RK4w10000iv80"
VARIABLES = "x" "Density" "Velocity in x" "Energy" "Pressure" "Temperature" "Fugacity"
ZONE T = "Final Time 0.10"
I = 256, J = 1, K = 1, F = POINT

0.001085	1.000000	-0.000000	1.000000	1.000000	4.000000	0.282095	
0.005156	1.000000	-0.000000	1.000000	1.000000	4.000000	0.282095	
0.010469	1.000000	-0.000000	1.000000	1.000000	4.000000	0.282095	
0.014540	1.000000	-0.000000	1.000000	1.000000	4.000000	0.282095	
0.016710	1.000000	-0.000000	1.000000	1.000000	4.000000	0.282095	
0.020781	1.000000	-0.000000	1.000000	1.000000	4.000000	0.282095	
0.026094	1.000000	-0.000000	1.000000	1.000000	4.000000	0.282095	
0.030165	1.000000	-0.000000	1.000000	1.000000	4.000000	0.282095	
0.032335	1.000000	-0.000000	1.000000	1.000000	4.000000	0.282095	
0.036406	1.000000	0.000000	1.000000	1.000000	4.000000	0.282095	
0.041719	1.000000	-0.000000	1.000000	1.000000	4.000000	0.282095	
0.045790	1.000000	-0.000000	1.000000	1.000000	4.000000	0.282095	
0.047960	1.000000	-0.000000	1.000000	1.000000	4.000000	0.282095	
0.052031	1.000000	0.000000	1.000000	1.000000	4.000000	0.282095	
0.057344	1.000000	-0.000000	1.000000	1.000000	4.000000	0.282095	
0.061415	1.000000	-0.000000	1.000000	1.000000	4.000000	0.282095	
0.063585	1.000000	0.000000	1.000000	1.000000	4.000000	0.282095	
0.067656	1.000000	0.000000	1.000000	1.000000	4.000000	0.282095	
0.072969	1.000000	-0.000000	1.000000	1.000000	4.000000	0.282095	
0.077040	1.000000	-0.000000	1.000000	1.000000	4.000000	0.282095	
0.079210	1.000000	0.000000	1.000000	1.000000	4.000000	0.282095	
0.083281	1.000000	0.000000	1.000000	1.000000	4.000000	0.282095	
0.088594	1.000000	-0.000000	1.000000	1.000000	4.000000	0.282095	
0.092665	1.000000	-0.000000	1.000000	1.000000	4.000000	0.282095	
0.094835	1.000000	0.000000	1.000000	1.000000	4.000000	0.282095	
0.098906	1.000000	0.000000	1.000000	1.000000	4.000000	0.282095	
0.104219	1.000000	-0.000000	1.000000	1.000000	4.000000	0.282095	
0.108290	1.000000	-0.000000	1.000000	1.000000	4.000000	0.282095	
0.110460	1.000000	0.000000	1.000000	1.000000	4.000000	0.282095	
0.114531	1.000000	0.000000	1.000000	1.000000	3.999999	0.282095	
0.119844	1.000000	-0.000000	1.000000	1.000000	4.000000	0.282095	
0.123915	1.000000	-0.000001	1.000001	1.000001	4.000002	0.282095	
0.126085	1.000000	-0.000000	1.000000	1.000000	4.000000	0.282095	
0.130156	1.000000	0.000001	0.999999	0.999999	3.999998	0.282095	
0.135469	1.000000	0.000000	1.000000	1.000000	4.000000	0.282095	
0.139540	1.000001	-0.000002	1.000002	1.000002	4.000006	0.282095	
0.141710	1.000001	-0.000001	1.000001	1.000001	4.000004	0.282095	
0.145781	0.999999	0.000002	0.999998	0.999998	3.999994	0.282095	
0.151094	0.999999	0.000002	0.999998	0.999998	3.999994	0.282095	
0.155165	1.000002	-0.000005	1.000006	1.000006	4.000017	0.282095	
0.157335	1.000003	-0.000007	1.000008	1.000008	4.000022	0.282095	
0.161406	0.999999	0.000002	0.999997	0.999997	3.999992	0.282095	
0.166719	0.999995	0.000011	0.999986	0.999986	3.999963	0.282095	
0.170790	1.000002	-0.000005	1.000007	1.000007	4.000021	0.282095	
0.172960	1.000009	-0.000023	1.000028	1.000028	4.000076	0.282095	
0.177031	1.000005	-0.000012	1.000015	1.000015	4.000040	0.282095	
0.182344	0.999986	0.000035	0.999954	0.999954	3.999874	0.282095	
0.186415	0.999983	0.000037	0.999956	0.999956	3.999892	0.282094	
0.188585	1.000010	-0.000024	1.000033	1.000033	4.000090	0.282095	
0.192656	1.000033	-0.000082	1.000103	1.000103	4.000278	0.282094	
0.197969	0.999998	0.000007	0.999983	0.999983	3.999940	0.282096	
0.202040	0.999920	0.000194	0.999763	0.999763	3.999372	0.282094	
0.204210	0.999930	0.000180	0.999790	0.999790	3.999438	0.282095	
0.208281	1.000039	-0.000106	1.000134	1.000134	4.000379	0.282092	
0.213594	1.000163	-0.000402	1.000493	1.000493	4.001321	0.282094	
0.217665	1.000039	-0.000064	1.000070	1.000070	4.000126	0.282101	
0.219835	0.999840	0.000402	0.999497	0.999497	3.998629	0.282098	
0.223906	0.999725	0.000663	0.999169	0.999169	3.997774	0.282096	
0.229219	1.000065	-0.000178	1.000274	1.000274	4.000834	0.282084	
0.233290	1.000584	-0.001407	1.001727	1.001726	4.004566	0.282099	
0.235460	1.000528	-0.001345	1.001601	1.001600	4.004286	0.282093	
0.239531	0.999435	0.001497	0.998076	0.998075	3.994557	0.282127	
0.244844	0.995586	0.011001	0.986392	0.986331	3.962818	0.282164	
0.248915	0.990749	0.022856	0.972217	0.971958	3.924134	0.282174	
0.251085	0.987822	0.030176	0.963616	0.963166	3.900163	0.282203	
0.255156	0.981565	0.045444	0.946017	0.945003	3.851005	0.282200	
0.260469	0.972649	0.067321	0.921626	0.919422	3.781104	0.282210	
0.264540	0.965496	0.084839	0.902742	0.899267	3.725616	0.282213	
0.266710	0.961577	0.094406	0.892674	0.888389	3.695547	0.282208	
0.270781	0.954163	0.112590	0.874017	0.867969	3.638661	0.282213	
0.276094	0.944313	0.136698	0.850206	0.841383	3.564002	0.282210	
0.280165	0.936687	0.155379	0.832467	0.821160	3.506656	0.282210	
0.282335	0.932595	0.165399	0.823206	0.810450	3.476105	0.282210	
0.286406	0.924881	0.184285	0.806223	0.790518	3.418896	0.282207	
0.291719	0.914756	0.209072	0.784845	0.764853	3.344511	0.282204	
0.295790	0.906960	0.228155	0.769077	0.745472	3.287783	0.282203	
0.297960	0.902793	0.238353	0.760894	0.735249	3.257665	0.282202	
0.302031	0.894957	0.257537	0.745961	0.716282	3.201413	0.282199	
0.307344	0.884700	0.282645	0.727293	0.691955	3.128539	0.282196	
0.311415	0.876819	0.301941	0.713608	0.673638	3.073101	0.282193	
0.313585	0.872613	0.312240	0.706533	0.663995	3.043710	0.282192	
0.317656	0.864708	0.331598	0.693665	0.646124	2.988868	0.282190	
0.322969	0.854369	0.356902	0.677659	0.623245	2.917917	0.282185	
0.327040	0.846430	0.376332	0.665983	0.606045	2.864004	0.282182	
0.329210	0.842194	0.386698	0.659967	0.596998	2.835441	0.282180	
0.333281	0.834238	0.406177	0.649065	0.580249	2.782173	0.282178	
0.338594	0.823839	0.431638	0.635581	0.558836	2.713327	0.282173	
0.342665	0.815853	0.451185	0.625799	0.542758	2.661059	0.282169	
0.344835	0.811593	0.461614	0.620778	0.534308	2.633380	0.282167	
0.348906	0.803591	0.481207	0.611712	0.518672	2.581769	0.282164	
0.354219	0.793132	0.506813	0.600558	0.498697	2.515076	0.282160	
0.358290	0.785099	0.526471	0.592515	0.483711	2.464460	0.282156	
0.360460	0.780812	0.536959	0.588404	0.475840	2.437666	0.282153	
0.364531	0.772760	0.556666	0.581016	0.461286	2.387730	0.282148	
0.369844	0.762240	0.582425	0.572001	0.442718	2.323244	0.282143	
0.373915	0.754164	0.602201	0.565553	0.428806	2.274338	0.282139	
0.376085	0.749856	0.612749	0.562277	0.421506	2.248463	0.282137	
0.380156	0.741763	0.632559	0.556423	0.408021	2.200279	0.282131	
0.385469	0.731195	0.658423	0.549344	0.390850	2.138144	0.282124	
0.389540	0.723095	0.678246	0.544337	0.378018	2.091112	0.282119	
0.391710	0.718781	0.688805	0.541813	0.371299	2.066271	0.282116	
0.395781	0.710695	0.708601	0.537346	0.358921	2.020111	0.282111	
0.401094	0.700169	0.734368	0.532028	0.343229	1.960836	0.282103	
0.405165	0.692129	0.754046	0.528327	0.331559	1.916170	0.282095	
0.407335	0.687863	0.764492	0.526483	0.325472	1.892658	0.282092	
0.411406	0.679856	0.784086	0.523244	0.314259	1.848977	0.282083	
0.416719	0.669506	0.809433	0.519459	0.300134	1.793167	0.282078	
0.420790	0.661749	0.828394	0.516913	0.289855	1.752057	0.282062	
0.422960	0.657784	0.838079	0.515712	0.284706	1.731305	0.282047	
0.427031	0.651567	0.853275	0.513940	0.276745	1.698948	0.282029	
0.432344	0.646912	0.864424	0.512772	0.271076	1.676125	0.281914	
0.436415	0.646925	0.864487	0.512807	0.271071	1.676058	0.281925	
0.438585	0.647560	0.862928	0.512973	0.271873	1.679366	0.281924	
0.442656	0.648366	0.860757	0.513194	0.273006	1.684272	0.281864	
0.447969	0.648795	0.859890	0.513280	0.273417	1.685692	0.281931	
0.452040	0.648318	0.860955	0.513161	0.272880	1.683619	0.281898	
0.454210	0.648307	0.860974	0.513158	0.272870	1.683588	0.281895	
0.458281	0.648213	0.861123	0.513130	0.272794	1.683359	0.281874	
0.463594	0.648100	0.861384	0.513101	0.272662	1.682840	0.281868	
0.467665	0.648121	0.861330	0.513118	0.272701	1.683024	0.281862	
0.469835	0.648332	0.860870	0.513176	0.272937	1.683937	0.281877	
0.473906	0.648461	0.860505	0.513217	0.273134	1.684816	0.281860	
0.479219	0.648303	0.860866	0.513159	0.272933	1.683986	0.281860	
0.483290	0.648073	0.861277	0.513102	0.272732	1.683345	0.281814	
0.485460	0.648265	0.860844	0.513150	0.272951	1.684194	0.281826	
0.489531	0.648317	0.860760	0.513170	0.272999	1.684353	0.281836	
0.494844	0.648121	0.861201	0.513118	0.272773	1.683468	0.281824	
0.498915	0.648139	0.860898	0.513131	0.272948	1.684506	0.281745	
0.501085	0.648425	0.860153	0.513199	0.273326	1.686095	0.281737	
0.505156	0.648425	0.860296	0.513204	0.273251	1.685628	0.281776	
0.510469	0.648053	0.861318	0.513111	0.272725	1.683353	0.281804	
0.514540	0.648130	0.860819	0.513129	0.272993	1.684806	0.281716	
0.516710	0.648283	0.860219	0.513150	0.273293	1.686260	0.281661	
0.520781	0.648124	0.860798	0.513100	0.272979	1.684735	0.281720	
0.526094	0.647862	0.861577	0.513074	0.272616	1.683173	0.281736	
0.530165	0.648364	0.859969	0.513199	0.273451	1.687024	0.281633	
0.532335	0.648220	0.859747	0.513131	0.273561	1.688073	0.281483	
0.536406	0.647726	0.860990	0.512971	0.272890	1.685217	0.281506	
0.541719	0.647714	0.861660	0.513049	0.272598	1.683448	0.281649	
0.545790	0.648645	0.859511	0.513285	0.273689	1.687757	0.281694	
0.547960	0.647923	0.860305	0.513060	0.273288	1.687165	0.281429	
0.552031	0.647472	0.861770	0.512881	0.272459	1.683218	0.281563	
0.557344	0.647066	0.861252	0.512858	0.272876	1.686851	0.281083	
0.561415	0.647369	0.858522	0.512777	0.274202	1.694256	0.280600	
0.563585	0.645680	0.860458	0.512249	0.273222	1.692616	0.280003	
0.567656	0.644376	0.862711	0.511818	0.272023	1.688597	0.279770	
0.572969	0.655348	0.859676	0.515725	0.273560	1.669706	0.286139	
0.577040	0.646304	0.859764	0.512889	0.274017	1.695899	0.280002	
0.579210	0.627035	0.864886	0.506516	0.271996	1.735126	0.268566	
0.583281	0.540168	0.867883	0.475318	0.271885	2.013334	0.214781	
0.588594	0.373522	0.870767	0.415698	0.274090	2.935192	0.123005	
0.592665	0.263926	0.874806	0.374895	0.273906	4.151246	0.073083	
0.594835	0.227540	0.872847	0.360251	0.273574	4.809239	0.058539	
0.598906	0.190515	0.873502	0.344640	0.271958	5.709958	0.044982	
0.604219	0.174580	0.866598	0.337614	0.272059	6.233448	0.039451	
0.608290	0.172412	0.862383	0.336942	0.272830	6.329723	0.038663	
0.610460	0.171687	0.859586	0.336981	0.273553	6.373300	0.038369	
0.614531	0.171245	0.856412	0.337064	0.274265	6.406362	0.038171	
0.619844	0.170722	0.858619	0.336536	0.273606	6.410580	0.038042	
0.623915	0.170418	0.863285	0.335842	0.272339	6.392269	0.038029	
0.626085	0.170369	0.865274	0.335592	0.271814	6.381757	0.038049	
0.630156	0.170403	0.865621	0.335581	0.271740	6.378748	0.038066	
0.635469	0.170633	0.860911	0.336266	0.273033	6.400470	0.038052	
0.639540	0.170899	0.856105	0.336926	0.274299	6.420139	0.038053	
0.641710	0.170922	0.855515	0.337001	0.274452	6.422881	0.038050	
0.645781	0.170776	0.857962	0.336667	0.273814	6.413402	0.038046	
0.651094	0.170445	0.864164	0.335830	0.272187	6.387692	0.038048	
0.655165	0.170257	0.866950	0.335473	0.271490	6.378358	0.038034	
0.657335	0.170295	0.866093	0.335596	0.271725	6.382459	0.038031	
0.661406	0.170563	0.861656	0.336225	0.272907	6.400167	0.038038	
0.666719	0.170891	0.855623	0.337046	0.274493	6.424977	0.038037	
0.670790	0.170917	0.855772	0.336998	0.274413	6.422121	0.038051	
0.672960	0.170793	0.858467	0.336626	0.273691	6.409888	0.038060	
0.677031	0.170489	0.863810	0.335866	0.272259	6.387704	0.038058	
0.682344	0.170323	0.867207	0.335437	0.271391	6.373555	0.038063	
0.686415	0.170523	0.863848	0.335921	0.272296	6.387314	0.038067	
0.688585	0.170682	0.860617	0.336361	0.273152	6.401425	0.038061	
0.692656	0.170990	0.855731	0.337066	0.274460	6.420513	0.038072	
0.697969	0.171030	0.855622	0.337072	0.274467	6.419180	0.038085	
0.702040	0.170671	0.862317	0.336179	0.272724	6.391819	0.038087	
0.704210	0.170510	0.865743	0.335754	0.271854	6.377436	0.038094	
0.708281	0.170391	0.867738	0.335507	0.271357	6.370210	0.038089	
0.713594	0.170619	0.863428	0.336132	0.272533	6.389262	0.038083	
0.717665	0.170988	0.857295	0.336995	0.274161	6.413593	0.038092	
0.719835	0.171115	0.854643	0.337352	0.274859	6.425132	0.038087	
0.723906	0.171114	0.854951	0.337309	0.274772	6.423143	0.038092	
0.729219	0.170693	0.862951	0.336114	0.272558	6.387083	0.038106	
0.733290	0.170256	0.869597	0.335215	0.270841	6.363129	0.038080	
0.735460	0.170348	0.868322	0.335395	0.271175	6.367572	0.038087	
0.739531	0.170640	0.863581	0.336073	0.272444	6.386427	0.038096	
0.744844	0.170961	0.856450	0.337011	0.274310	6.418092	0.038073	
0.748915	0.171165	0.853495	0.337417	0.275074	6.428262	0.038088	
0.751085	0.171251	0.853907	0.337412	0.274978	6.422806	0.038124	
0.755156	0.170690	0.861814	0.336339	0.272951	6.396433	0.038077	
0.760469	0.170240	0.871268	0.335155	0.270540	6.356657	0.038095	
0.764540	0.170528	0.866520	0.335867	0.271845	6.376558	0.038100	
0.766710	0.170760	0.861254	0.336559	0.273228	6.400298	0.038081	
0.770781	0.170878	0.856914	0.337122	0.274384	6.422946	0.038040	
0.776094	0.171301	0.855003	0.337548	0.274935	6.419951	0.038143	
0.780165	0.171028	0.855575	0.337415	0.274818	6.427428	0.038061	
0.782335	0.170280	0.862380	0.336164	0.272845	6.409305	0.037948	
0.786406	0.170408	0.871820	0.334919	0.270158	6.341449	0.038179	
0.791719	0.170348	0.867964	0.335783	0.271616	6.377901	0.038056	
0.795790	0.170774	0.851646	0.337668	0.275737	6.458539	0.037912	
0.797960	0.170728	0.854906	0.336823	0.274433	6.429711	0.037987	
0.802031	0.171854	0.855719	0.337216	0.274295	6.384372	0.038373	
0.807344	0.169874	0.858087	0.337330	0.274790	6.470426	0.037678	
0.811415	0.170851	0.864914	0.335741	0.271836	6.364296	0.038209	
0.813585	0.172874	0.875789	0.335771	0.269473	6.235143	0.039060	
0.817656	0.167595	0.861109	0.328316	0.266179	6.352902	0.037515	
0.822969	0.173213	0.881336	0.352782	0.285510	6.593275	0.038059	
0.827040	0.174936	0.831181	0.337736	0.277308	6.340797	0.039195	
0.829210	0.159406	0.689492	0.263198	0.225307	5.653667	0.037824	
0.833281	0.119622	-0.066160	0.092118	0.091857	3.071562	0.038509	
0.838594	0.126159	0.009247	0.102102	0.102097	3.237089	0.039561	
0.842665	0.132525	0.146049	0.121252	0.119839	3.617090	0.039314	
0.844835	0.121422	-0.078823	0.090634	0.090257	2.973319	0.039729	
0.848906	0.123742	-0.019148	0.097327	0.097305	3.145394	0.039365	
0.854219	0.126383	0.023169	0.103226	0.103193	3.266022	0.039455	
0.858290	0.124005	-0.015886	0.097964	0.097948	3.159511	0.039360	
0.860460	0.124236	-0.014266	0.097813	0.097800	3.148854	0.039500	
0.864531	0.125497	0.008468	0.101276	0.101272	3.227865	0.039409	
0.869844	0.124828	-0.002676	0.099593	0.099593	3.191350	0.039423	
0.873915	0.124846	-0.003269	0.099580	0.099579	3.190468	0.039434	
0.876085	0.125238	0.004350	0.100574	0.100573	3.212224	0.039424	
0.880156	0.124982	-0.000266	0.099973	0.099973	3.199603	0.039421	
0.885469	0.124975	-0.000468	0.099932	0.099932	3.198457	0.039426	
0.889540	0.125052	0.000881	0.100117	0.100117	3.202410	0.039425	
0.891710	0.125000	0.000036	0.100019	0.100019	3.200598	0.039420	
0.895781	0.124985	-0.000271	0.099958	0.099958	3.199037	0.039425	
0.901094	0.125009	0.000148	0.100022	0.100022	3.200488	0.039424	
0.905165	0.125000	0.000022	0.100003	0.100003	3.200084	0.039423	
0.907335	0.124991	-0.000164	0.099977	0.099977	3.199478	0.039424	
0.911406	0.125002	0.000041	0.100006	0.100006	3.200126	0.039424	
0.916719	0.125000	-0.000000	0.100000	0.100000	3.199999	0.039424	
0.920790	0.124998	-0.000035	0.099995	0.099995	3.199902	0.039424	
0.922960	0.125001	0.000018	0.100002	0.100002	3.200040	0.039424	
0.927031	0.125000	0.000005	0.100001	0.100001	3.200020	0.039424	
0.932344	0.125000	-0.000005	0.099999	0.099999	3.199983	0.039424	
0.936415	0.125000	0.000003	0.100000	0.100000	3.200008	0.039424	
0.938585	0.125000	0.000004	0.100001	0.100001	3.200014	0.039424	
0.942656	0.125000	-0.000002	0.100000	0.100000	3.199993	0.039424	
0.947969	0.125000	0.000001	0.100000	0.100000	3.200002	0.039424	
0.952040	0.125000	0.000001	0.100000	0.100000	3.200002	0.039424	
0.954210	0.125000	-0.000001	0.100000	0.100000	3.199997	0.039424	
0.958281	0.125000	0.000000	0.100000	0.100000	3.200000	0.039424	
0.963594	0.125000	0.000000	0.100000	0.100000	3.200000	0.039424	
0.967665	0.125000	-0.000000	0.100000	0.100000	3.199999	0.039424	
0.969835	0.125000	-0.000000	0.100000	0.100000	3.200000	0.039424	
0.973906	0.125000	0.000000	0.100000	0.100000	3.200000	0.039424	
0.979219	0.125000	-0.000000	0.100000	0.100000	3.200000	0.039424	
0.983290	0.125000	-0.000000	0.100000	0.100000	3.200000	0.039424	
0.985460	0.125000	0.000000	0.100000	0.100000	3.200000	0.039424	
0.989531	0.125000	-0.000000	0.100000	0.100000	3.200000	0.039424	
0.994844	0.125000	-0.000000	0.100000	0.100000	3.200000	0.039424	
0.998915	0.125000	0.000000	0.100000	0.100000	3.200000	0.039424	
