TITLE = "DG1DFDX16-P4RK4w100iv80"
VARIABLES = "x" "Density" "Velocity in x" "Energy" "Pressure" "Temperature" "Fugacity"
ZONE T = "Final Time 0.10"
I = 80, J = 1, K = 1, F = POINT

0.002932	0.837293	0.000003	0.913090	0.913090	4.000475	0.281991	
0.014423	0.837292	0.000007	0.913087	0.913087	4.000468	0.281991	
0.031250	0.837291	0.000012	0.913077	0.913077	4.000456	0.281991	
0.048077	0.837283	0.000044	0.913032	0.913032	4.000387	0.281991	
0.059568	0.837271	0.000097	0.912952	0.912952	3.999908	0.282006	
0.065432	0.837262	0.000132	0.912898	0.912898	3.999824	0.282006	
0.076923	0.837235	0.000247	0.912734	0.912734	3.999204	0.282021	
0.093750	0.837156	0.000573	0.912269	0.912269	3.997369	0.282067	
0.110577	0.836979	0.001285	0.911276	0.911275	3.993875	0.282142	
0.122068	0.836751	0.002181	0.910054	0.910052	3.989548	0.282233	
0.127932	0.836582	0.002839	0.909171	0.909168	3.986143	0.282308	
0.139423	0.836105	0.004666	0.906753	0.906744	3.977652	0.282474	
0.156250	0.834877	0.009253	0.900856	0.900821	3.957070	0.282852	
0.173077	0.832677	0.017227	0.890988	0.890865	3.923194	0.283411	
0.184568	0.830382	0.025347	0.881291	0.881024	3.890091	0.283909	
0.190432	0.828907	0.030490	0.875300	0.874915	3.869703	0.284196	
0.201923	0.825335	0.042763	0.861391	0.860636	3.822415	0.284816	
0.218750	0.818278	0.066444	0.835880	0.834074	3.735326	0.285812	
0.235577	0.808855	0.097289	0.804838	0.801010	3.628198	0.286824	
0.247068	0.801022	0.122451	0.781114	0.775108	3.544464	0.287489	
0.252932	0.796593	0.136528	0.768413	0.760988	3.498902	0.287806	
0.264423	0.787096	0.166428	0.742712	0.731811	3.404867	0.288365	
0.281250	0.771341	0.215292	0.704165	0.686289	3.257890	0.289000	
0.298077	0.753617	0.269451	0.666034	0.638677	3.102822	0.289392	
0.309568	0.740535	0.308991	0.641006	0.605654	2.994196	0.289498	
0.315432	0.733590	0.329850	0.628699	0.588792	2.938299	0.289498	
0.326923	0.719527	0.371850	0.605713	0.555967	2.828947	0.289362	
0.343750	0.698054	0.435394	0.575212	0.509047	2.670094	0.288879	
0.360577	0.675912	0.500236	0.548992	0.464424	2.516623	0.287972	
0.372068	0.660651	0.544505	0.533716	0.435779	2.416374	0.287111	
0.377932	0.652887	0.566880	0.526755	0.421851	2.367440	0.286568	
0.389423	0.637830	0.609930	0.514737	0.396096	2.275998	0.285329	
0.406250	0.616568	0.669784	0.500862	0.362562	2.156647	0.282973	
0.423077	0.596802	0.723838	0.491007	0.334662	2.058178	0.279891	
0.434568	0.584447	0.756341	0.486253	0.319086	2.005316	0.277278	
0.440432	0.578522	0.771385	0.484349	0.312228	1.983063	0.275768	
0.451923	0.567654	0.797713	0.481474	0.300862	1.949335	0.272400	
0.468750	0.552976	0.829306	0.478792	0.288638	1.922971	0.266237	
0.485577	0.538529	0.854410	0.477206	0.280638	1.924098	0.257990	
0.497068	0.527614	0.869479	0.476342	0.276906	1.941864	0.250528	
0.502932	0.521407	0.876901	0.475887	0.275418	1.956717	0.245997	
0.514423	0.507324	0.891595	0.474747	0.273100	2.000179	0.235272	
0.531250	0.480721	0.914837	0.472002	0.270838	2.105448	0.214685	
0.548077	0.445309	0.941139	0.466833	0.269618	2.279971	0.188100	
0.559568	0.416293	0.960371	0.461328	0.269351	2.451507	0.167467	
0.565432	0.400278	0.970196	0.457776	0.269389	2.558242	0.156577	
0.576923	0.367544	0.988565	0.449382	0.269789	2.808101	0.135430	
0.593750	0.319593	1.009816	0.433948	0.270999	3.272617	0.107139	
0.610577	0.276414	1.019630	0.416253	0.272567	3.833329	0.084361	
0.622068	0.251460	1.017909	0.403846	0.273572	4.246800	0.072338	
0.627932	0.240342	1.014471	0.397665	0.273991	4.456917	0.067263	
0.639423	0.221662	1.003139	0.386096	0.274568	4.856323	0.059106	
0.656250	0.201122	0.978650	0.371018	0.274705	5.367822	0.050723	
0.673077	0.187130	0.949808	0.358437	0.274029	5.764769	0.045376	
0.684568	0.180416	0.930001	0.351192	0.273171	5.966909	0.042929	
0.690432	0.177660	0.920183	0.347837	0.272621	6.047682	0.041963	
0.701923	0.173298	0.901743	0.341802	0.271344	6.174921	0.040467	
0.718750	0.168695	0.876185	0.333741	0.268987	6.291265	0.038987	
0.735577	0.165348	0.850647	0.325701	0.265878	6.346959	0.038020	
0.747068	0.163394	0.831631	0.319618	0.263116	6.359327	0.037522	
0.752932	0.162435	0.820982	0.316186	0.261444	6.354477	0.037310	
0.764423	0.160474	0.796834	0.308342	0.257396	6.336252	0.036903	
0.781250	0.157197	0.750711	0.293412	0.249117	6.258718	0.036359	
0.798077	0.152883	0.682733	0.271986	0.236354	6.106509	0.035785	
0.809568	0.149067	0.617183	0.252131	0.223740	5.931836	0.035392	
0.815432	0.146783	0.576019	0.239997	0.215646	5.804560	0.035226	
0.826923	0.141665	0.478257	0.212487	0.196285	5.475342	0.034999	
0.843750	0.133436	0.302046	0.166996	0.160909	4.764961	0.035347	
0.860577	0.126972	0.145792	0.130448	0.129099	4.014696	0.036676	
0.872068	0.124390	0.078434	0.115595	0.115213	3.656861	0.037673	
0.877932	0.123684	0.058572	0.111229	0.111017	3.543139	0.038066	
0.889423	0.122758	0.032874	0.105701	0.105634	3.395181	0.038609	
0.906250	0.122091	0.014124	0.101713	0.101701	3.287934	0.039032	
0.923077	0.121835	0.006556	0.100066	0.100064	3.239894	0.039244	
0.934568	0.121748	0.003962	0.099495	0.099494	3.225586	0.039304	
0.940432	0.121717	0.003068	0.099306	0.099306	3.219093	0.039334	
0.951923	0.121678	0.001870	0.099041	0.099040	3.212268	0.039365	
0.968750	0.121648	0.000905	0.098829	0.098829	3.205884	0.039395	
0.985577	0.121633	0.000396	0.098723	0.098723	3.202700	0.039410	
0.997068	0.121627	0.000178	0.098674	0.098674	3.200016	0.039425	
