TITLE = "DG1DBEX32-P3RK4w100iv80"
VARIABLES = "x" "Density" "Velocity in x" "Energy" "Pressure" "Temperature" "Fugacity"
ZONE T = "Final Time 0.10"
I = 128, J = 1, K = 1, F = POINT

0.002170	1.261042	0.000002	1.118820	1.118820	3.999270	0.282218	
0.010313	1.261042	0.000002	1.118818	1.118818	3.999268	0.282218	
0.020937	1.261041	0.000004	1.118815	1.118815	3.999265	0.282218	
0.029080	1.261041	0.000006	1.118811	1.118811	3.999261	0.282218	
0.033420	1.261040	0.000007	1.118809	1.118809	3.999258	0.282218	
0.041563	1.261039	0.000010	1.118802	1.118802	3.999251	0.282218	
0.052187	1.261036	0.000018	1.118786	1.118786	3.999232	0.282218	
0.060330	1.261033	0.000026	1.118769	1.118769	3.999212	0.282218	
0.064670	1.261031	0.000031	1.118755	1.118755	3.999203	0.282218	
0.072813	1.261019	0.000063	1.118694	1.118694	3.999124	0.282218	
0.083437	1.260993	0.000129	1.118553	1.118553	3.998417	0.282233	
0.091580	1.260969	0.000194	1.118423	1.118423	3.998263	0.282233	
0.095920	1.260950	0.000246	1.118326	1.118326	3.997597	0.282248	
0.104063	1.260903	0.000364	1.118078	1.118078	3.997297	0.282248	
0.114687	1.260808	0.000605	1.117597	1.117597	3.995610	0.282278	
0.122830	1.260699	0.000882	1.117056	1.117055	3.994375	0.282293	
0.127170	1.260621	0.001074	1.116680	1.116679	3.993338	0.282308	
0.135313	1.260431	0.001542	1.115772	1.115770	3.990505	0.282354	
0.145937	1.260057	0.002448	1.114053	1.114049	3.985972	0.282414	
0.154080	1.259640	0.003447	1.112184	1.112177	3.980621	0.282489	
0.158420	1.259354	0.004121	1.110939	1.110929	3.977191	0.282535	
0.166563	1.258674	0.005710	1.108042	1.108021	3.969118	0.282641	
0.177187	1.257418	0.008588	1.102906	1.102860	3.954749	0.282822	
0.185330	1.256098	0.011566	1.097705	1.097621	3.940557	0.282988	
0.189670	1.255237	0.013481	1.094413	1.094299	3.931419	0.283094	
0.197813	1.253284	0.017782	1.087140	1.086942	3.911754	0.283305	
0.208437	1.249954	0.024979	1.075298	1.074908	3.879402	0.283637	
0.216580	1.246703	0.031885	1.064255	1.063621	3.848800	0.283940	
0.220920	1.244694	0.036102	1.057648	1.056837	3.831208	0.284091	
0.229063	1.240356	0.045106	1.043857	1.042595	3.793238	0.284423	
0.239687	1.233502	0.059094	1.023195	1.021042	3.736239	0.284876	
0.247830	1.227262	0.071623	1.005394	1.002246	3.687061	0.285223	
0.252170	1.223578	0.078950	0.995268	0.991455	3.658528	0.285420	
0.260313	1.215961	0.093944	0.975163	0.969797	3.601438	0.285782	
0.270937	1.204636	0.115923	0.947079	0.938985	3.520873	0.286220	
0.279080	1.194883	0.134598	0.924422	0.913598	3.454312	0.286538	
0.283420	1.189313	0.145180	0.912048	0.899514	3.417117	0.286704	
0.291563	1.178159	0.166190	0.888433	0.872163	3.345214	0.286976	
0.302187	1.162285	0.195765	0.857220	0.834949	3.246498	0.287293	
0.310330	1.149137	0.219998	0.833320	0.805511	3.168353	0.287474	
0.314670	1.141800	0.233436	0.820680	0.789570	3.125506	0.287565	
0.322813	1.127430	0.259578	0.797318	0.759335	3.044467	0.287670	
0.333437	1.107593	0.295370	0.767809	0.719494	2.936303	0.287746	
0.341580	1.091604	0.323968	0.746188	0.688903	2.852902	0.287716	
0.345920	1.082829	0.339583	0.735077	0.672643	2.807974	0.287685	
0.354063	1.065917	0.369514	0.715110	0.642339	2.723871	0.287565	
0.364687	1.043083	0.409641	0.690942	0.603424	2.614384	0.287308	
0.372830	1.025067	0.441058	0.673988	0.574284	2.531650	0.287006	
0.377170	1.015316	0.457984	0.665532	0.559051	2.487726	0.286824	
0.385313	0.996779	0.489984	0.650792	0.531137	2.407093	0.286386	
0.395937	0.972272	0.531972	0.633791	0.496218	2.304740	0.285677	
0.404080	0.953354	0.564092	0.622475	0.470796	2.229129	0.285012	
0.408420	0.943269	0.581108	0.617040	0.457775	2.190196	0.284604	
0.416563	0.924409	0.612677	0.607932	0.434433	2.120074	0.283728	
0.427187	0.900108	0.652813	0.598092	0.406295	2.034792	0.282369	
0.435330	0.881883	0.682390	0.592007	0.386680	1.975441	0.281115	
0.439670	0.872354	0.697630	0.589238	0.376956	1.945957	0.280375	
0.447813	0.854913	0.725019	0.584850	0.360157	1.895742	0.278804	
0.458437	0.833074	0.758084	0.580514	0.341133	1.840472	0.276372	
0.466580	0.817092	0.781088	0.578062	0.328809	1.806456	0.274182	
0.470920	0.808815	0.792492	0.577003	0.323018	1.791602	0.272868	
0.479063	0.793636	0.812268	0.575373	0.313561	1.769970	0.270089	
0.489687	0.774123	0.835137	0.573716	0.303759	1.754183	0.265723	
0.497830	0.758858	0.850770	0.572581	0.297947	1.751498	0.261675	
0.502170	0.750421	0.858578	0.571962	0.295373	1.753769	0.259198	
0.510313	0.733564	0.872596	0.570638	0.291361	1.765192	0.253821	
0.520937	0.708582	0.890336	0.568322	0.287475	1.795385	0.245075	
0.529080	0.686233	0.904140	0.565779	0.285293	1.832288	0.236737	
0.533420	0.672927	0.911733	0.564053	0.284365	1.857829	0.231617	
0.541563	0.645141	0.926623	0.559960	0.282991	1.918560	0.220666	
0.552187	0.602956	0.947473	0.552483	0.281844	2.028775	0.203598	
0.560330	0.566626	0.964337	0.544884	0.281418	2.140886	0.188674	
0.564670	0.546077	0.973517	0.540108	0.281340	2.212456	0.180170	
0.572813	0.506104	0.990706	0.529838	0.281468	2.371075	0.163570	
0.583437	0.453236	1.011692	0.514069	0.282121	2.629441	0.141638	
0.591580	0.413906	1.025661	0.500622	0.282911	2.868080	0.125476	
0.595920	0.393901	1.031874	0.493126	0.283420	3.008476	0.117350	
0.604063	0.358686	1.040837	0.478749	0.284459	3.297474	0.103212	
0.614687	0.318328	1.046219	0.460071	0.285854	3.710760	0.087413	
0.622830	0.291919	1.045172	0.446270	0.286827	4.043553	0.077383	
0.627170	0.279487	1.042775	0.439234	0.287280	4.223740	0.072746	
0.635313	0.259007	1.035129	0.426722	0.287960	4.555070	0.065284	
0.645937	0.237425	1.020051	0.411991	0.288470	4.963791	0.057656	
0.654080	0.224289	1.005595	0.401953	0.288550	5.246805	0.053155	
0.658420	0.218329	0.997273	0.397055	0.288486	5.385943	0.051146	
0.666563	0.208834	0.980948	0.388652	0.288176	5.616229	0.048020	
0.677187	0.199193	0.959364	0.379117	0.287450	5.865110	0.044923	
0.685330	0.193493	0.943205	0.372749	0.286680	6.021105	0.043126	
0.689670	0.190932	0.934875	0.369641	0.286205	6.089342	0.042340	
0.697813	0.186872	0.919818	0.364252	0.285199	6.196602	0.041117	
0.708437	0.182721	0.901273	0.357884	0.283673	6.299738	0.039908	
0.716580	0.180197	0.887691	0.353320	0.282323	6.357501	0.039198	
0.720920	0.179024	0.880582	0.350941	0.281532	6.380708	0.038881	
0.729063	0.177069	0.867236	0.346474	0.279888	6.409999	0.038383	
0.739687	0.174847	0.849257	0.340416	0.277363	6.430902	0.037854	
0.747830	0.173280	0.834414	0.335368	0.275046	6.436962	0.037507	
0.752170	0.172460	0.825918	0.332463	0.273642	6.434682	0.037341	
0.760313	0.170905	0.808421	0.326457	0.270609	6.420128	0.037054	
0.770937	0.168738	0.781529	0.317219	0.265687	6.380622	0.036706	
0.779080	0.166884	0.756591	0.308709	0.260944	6.337189	0.036434	
0.783420	0.165797	0.741329	0.303544	0.257986	6.308457	0.036283	
0.791563	0.163544	0.708284	0.292494	0.251472	6.228336	0.036026	
0.802187	0.160046	0.654048	0.274798	0.240566	6.089826	0.035664	
0.810330	0.156878	0.601932	0.258344	0.229924	5.938550	0.035407	
0.814670	0.154999	0.569757	0.248445	0.223287	5.837975	0.035286	
0.822813	0.151136	0.500740	0.227890	0.208942	5.599620	0.035135	
0.833437	0.145605	0.394339	0.197911	0.186590	5.192729	0.035150	
0.841580	0.141388	0.306887	0.174694	0.168037	4.815287	0.035437	
0.845920	0.139277	0.260970	0.162989	0.158246	4.603838	0.035694	
0.854063	0.135869	0.183319	0.143882	0.141599	4.222096	0.036344	
0.864687	0.132762	0.108373	0.126164	0.125385	3.829142	0.037265	
0.872830	0.131256	0.070529	0.117461	0.117134	3.618102	0.037884	
0.877170	0.130707	0.056392	0.114239	0.114031	3.538417	0.038141	
0.885313	0.129970	0.037125	0.109877	0.109787	3.425732	0.038534	
0.895937	0.129392	0.021755	0.106412	0.106381	3.335882	0.038866	
0.904080	0.129135	0.014790	0.104834	0.104819	3.293589	0.039032	
0.908420	0.129033	0.012028	0.104208	0.104199	3.275373	0.039108	
0.916563	0.128898	0.008293	0.103357	0.103353	3.252956	0.039198	
0.927187	0.128785	0.005164	0.102641	0.102639	3.234454	0.039274	
0.935330	0.128731	0.003646	0.102289	0.102288	3.224078	0.039319	
0.939670	0.128709	0.003017	0.102145	0.102144	3.220436	0.039334	
0.947813	0.128679	0.002140	0.101940	0.101940	3.213826	0.039365	
0.958437	0.128652	0.001367	0.101756	0.101756	3.209937	0.039380	
0.966580	0.128638	0.000970	0.101663	0.101663	3.206711	0.039395	
0.970920	0.128633	0.000787	0.101623	0.101623	3.206460	0.039395	
0.979063	0.128624	0.000567	0.101565	0.101565	3.203499	0.039410	
0.989687	0.128616	0.000356	0.101506	0.101506	3.203099	0.039410	
0.997830	0.128610	0.000200	0.101473	0.101473	3.200297	0.039425	
