TITLE = "DG1DBEX64-P4RK4w1000iv80"
VARIABLES = "x" "Density" "Velocity in x" "Energy" "Pressure" "Temperature" "Fugacity"
ZONE T = "Final Time 0.10"
I = 320, J = 1, K = 1, F = POINT

0.000733	1.262727	-0.000000	1.119444	1.119444	3.996894	0.282580	
0.003606	1.262727	-0.000000	1.119444	1.119444	3.996894	0.282580	
0.007813	1.262727	-0.000000	1.119444	1.119444	3.996894	0.282580	
0.012019	1.262727	-0.000000	1.119444	1.119444	3.996894	0.282580	
0.014892	1.262727	-0.000000	1.119444	1.119444	3.996894	0.282580	
0.016358	1.262727	-0.000000	1.119444	1.119444	3.996894	0.282580	
0.019231	1.262727	-0.000000	1.119444	1.119444	3.996894	0.282580	
0.023438	1.262727	-0.000000	1.119444	1.119444	3.996894	0.282580	
0.027644	1.262727	-0.000000	1.119444	1.119444	3.996894	0.282580	
0.030517	1.262727	-0.000000	1.119444	1.119444	3.996894	0.282580	
0.031983	1.262727	-0.000000	1.119444	1.119444	3.996894	0.282580	
0.034856	1.262727	-0.000000	1.119444	1.119444	3.996894	0.282580	
0.039063	1.262727	-0.000000	1.119444	1.119444	3.996894	0.282580	
0.043269	1.262727	-0.000000	1.119444	1.119444	3.996894	0.282580	
0.046142	1.262727	-0.000000	1.119444	1.119444	3.996894	0.282580	
0.047608	1.262727	-0.000000	1.119444	1.119444	3.996894	0.282580	
0.050481	1.262727	-0.000000	1.119444	1.119444	3.996894	0.282580	
0.054688	1.262727	-0.000000	1.119444	1.119444	3.996894	0.282580	
0.058894	1.262727	-0.000000	1.119444	1.119444	3.996894	0.282580	
0.061767	1.262727	-0.000000	1.119444	1.119444	3.996894	0.282580	
0.063233	1.262727	-0.000000	1.119444	1.119444	3.996894	0.282580	
0.066106	1.262727	-0.000000	1.119444	1.119444	3.996894	0.282580	
0.070313	1.262727	-0.000000	1.119444	1.119444	3.996894	0.282580	
0.074519	1.262727	-0.000000	1.119444	1.119444	3.996894	0.282580	
0.077392	1.262727	-0.000000	1.119444	1.119444	3.996894	0.282580	
0.078858	1.262727	-0.000000	1.119444	1.119444	3.996894	0.282580	
0.081731	1.262727	-0.000000	1.119444	1.119444	3.996894	0.282580	
0.085938	1.262727	-0.000000	1.119444	1.119444	3.996894	0.282580	
0.090144	1.262727	-0.000000	1.119444	1.119444	3.996894	0.282580	
0.093017	1.262727	-0.000000	1.119444	1.119444	3.996894	0.282580	
0.094483	1.262727	-0.000000	1.119444	1.119444	3.996894	0.282580	
0.097356	1.262727	-0.000000	1.119444	1.119444	3.996894	0.282580	
0.101563	1.262727	-0.000000	1.119444	1.119444	3.996894	0.282580	
0.105769	1.262727	-0.000000	1.119444	1.119444	3.996894	0.282580	
0.108642	1.262727	-0.000000	1.119444	1.119444	3.996894	0.282580	
0.110108	1.262727	-0.000000	1.119444	1.119444	3.996894	0.282580	
0.112981	1.262727	-0.000000	1.119444	1.119444	3.996894	0.282580	
0.117188	1.262727	-0.000000	1.119444	1.119444	3.996894	0.282580	
0.121394	1.262727	-0.000000	1.119444	1.119444	3.996894	0.282580	
0.124267	1.262727	-0.000000	1.119444	1.119444	3.996894	0.282580	
0.125733	1.262727	-0.000000	1.119444	1.119444	3.996894	0.282580	
0.128606	1.262727	-0.000000	1.119444	1.119444	3.996894	0.282580	
0.132813	1.262727	-0.000000	1.119444	1.119444	3.996894	0.282580	
0.137019	1.262727	-0.000000	1.119444	1.119444	3.996894	0.282580	
0.139892	1.262727	-0.000000	1.119444	1.119444	3.996894	0.282580	
0.141358	1.262727	0.000000	1.119444	1.119444	3.996894	0.282580	
0.144231	1.262727	0.000000	1.119444	1.119444	3.996894	0.282580	
0.148438	1.262727	-0.000000	1.119444	1.119444	3.996894	0.282580	
0.152644	1.262727	0.000000	1.119444	1.119444	3.996894	0.282580	
0.155517	1.262727	-0.000000	1.119444	1.119444	3.996894	0.282580	
0.156983	1.262727	-0.000000	1.119444	1.119444	3.996894	0.282580	
0.159856	1.262727	0.000000	1.119444	1.119444	3.996894	0.282580	
0.164063	1.262727	-0.000000	1.119444	1.119444	3.996894	0.282580	
0.168269	1.262727	-0.000000	1.119444	1.119444	3.996894	0.282580	
0.171142	1.262727	0.000000	1.119444	1.119444	3.996894	0.282580	
0.172608	1.262727	-0.000000	1.119444	1.119444	3.996894	0.282580	
0.175481	1.262727	0.000000	1.119444	1.119444	3.996894	0.282580	
0.179688	1.262727	0.000000	1.119444	1.119444	3.996894	0.282580	
0.183894	1.262727	0.000000	1.119443	1.119443	3.996894	0.282580	
0.186767	1.262727	0.000000	1.119443	1.119443	3.996894	0.282580	
0.188233	1.262727	-0.000000	1.119444	1.119444	3.996895	0.282580	
0.191106	1.262726	0.000000	1.119443	1.119443	3.996893	0.282580	
0.195313	1.262726	0.000001	1.119442	1.119442	3.996890	0.282580	
0.199519	1.262726	0.000002	1.119439	1.119439	3.996887	0.282580	
0.202392	1.262722	0.000010	1.119426	1.119426	3.996865	0.282580	
0.203858	1.262715	0.000022	1.119410	1.119410	3.996819	0.282580	
0.206731	1.262713	0.000029	1.119399	1.119399	3.996805	0.282580	
0.210938	1.262667	0.000119	1.119248	1.119248	3.996518	0.282580	
0.215144	1.262504	0.000441	1.118739	1.118739	3.994943	0.282595	
0.218017	1.262322	0.000823	1.118162	1.118161	3.993790	0.282595	
0.219483	1.262192	0.001065	1.117763	1.117763	3.992424	0.282610	
0.222356	1.261871	0.001685	1.116783	1.116781	3.990395	0.282610	
0.226563	1.261207	0.002997	1.114736	1.114730	3.985112	0.282641	
0.230769	1.260231	0.004911	1.111797	1.111782	3.977327	0.282686	
0.233642	1.259340	0.006647	1.109139	1.109111	3.971162	0.282701	
0.235108	1.258803	0.007686	1.107555	1.107518	3.966698	0.282731	
0.237981	1.257577	0.010051	1.103977	1.103914	3.957899	0.282761	
0.242188	1.255321	0.014369	1.097522	1.097393	3.941566	0.282822	
0.246394	1.252467	0.019799	1.089515	1.089269	3.921535	0.282882	
0.249267	1.250151	0.024185	1.083145	1.082780	3.905453	0.282927	
0.250733	1.248852	0.026639	1.079616	1.079173	3.896810	0.282943	
0.253606	1.246070	0.031877	1.072156	1.071523	3.877891	0.282988	
0.257813	1.241441	0.040552	1.060009	1.058988	3.847043	0.283048	
0.262019	1.236168	0.050387	1.046519	1.044950	3.812359	0.283109	
0.264892	1.232213	0.057740	1.036616	1.034562	3.786459	0.283154	
0.266358	1.230089	0.061681	1.031381	1.029041	3.772904	0.283169	
0.269231	1.225724	0.069762	1.020784	1.017801	3.744650	0.283214	
0.273438	1.218881	0.082391	1.004566	1.000429	3.701954	0.283245	
0.277644	1.211549	0.095886	0.987684	0.982115	3.656061	0.283290	
0.280517	1.206280	0.105566	0.975888	0.969167	3.623839	0.283305	
0.281983	1.203519	0.110638	0.969793	0.962427	3.606776	0.283320	
0.284856	1.197977	0.120785	0.957782	0.949043	3.573150	0.283335	
0.289063	1.189539	0.136233	0.940020	0.928981	3.522517	0.283350	
0.293269	1.180713	0.152368	0.922037	0.908331	3.469970	0.283366	
0.296142	1.174489	0.163748	0.909696	0.893950	3.433016	0.283381	
0.297608	1.171249	0.169652	0.903417	0.886562	3.414103	0.283381	
0.300481	1.164859	0.181338	0.891206	0.872054	3.376489	0.283396	
0.304688	1.155352	0.198672	0.873603	0.850802	3.321602	0.283396	
0.308894	1.145664	0.216301	0.856354	0.829553	3.265686	0.283411	
0.311767	1.138955	0.228537	0.844807	0.815064	3.227551	0.283411	
0.313233	1.135514	0.234827	0.839004	0.807696	3.208078	0.283411	
0.316106	1.128703	0.247238	0.827744	0.793247	3.169706	0.283411	
0.320313	1.118608	0.265621	0.811625	0.772164	3.113264	0.283411	
0.324519	1.108385	0.284235	0.796025	0.751252	3.057035	0.283396	
0.327392	1.101333	0.297063	0.785634	0.737039	3.018257	0.283396	
0.328858	1.097714	0.303631	0.780427	0.729827	2.998858	0.283381	
0.331731	1.090591	0.316583	0.770423	0.715771	2.960070	0.283381	
0.335938	1.080086	0.335680	0.756232	0.695380	2.903710	0.283366	
0.340144	1.069497	0.354916	0.742595	0.675235	2.847439	0.283350	
0.343017	1.062222	0.368126	0.733611	0.661637	2.809216	0.283335	
0.344483	1.058499	0.374887	0.729130	0.654750	2.789936	0.283320	
0.347356	1.051180	0.388166	0.720541	0.641349	2.751865	0.283305	
0.351563	1.040418	0.407701	0.708463	0.621993	2.696170	0.283290	
0.355769	1.029606	0.427320	0.696961	0.602957	2.641138	0.283260	
0.358642	1.022196	0.440757	0.689430	0.590140	2.603613	0.283245	
0.360108	1.018409	0.447628	0.685699	0.583669	2.584707	0.283230	
0.362981	1.010975	0.461106	0.678566	0.571090	2.547458	0.283214	
0.367188	1.000072	0.480879	0.668604	0.552973	2.493483	0.283184	
0.371394	0.989149	0.500686	0.659205	0.535222	2.440304	0.283139	
0.374267	0.981679	0.514225	0.653099	0.523308	2.403915	0.283124	
0.375733	0.977868	0.521141	0.650089	0.517300	2.385611	0.283109	
0.378606	0.970399	0.534688	0.644366	0.505652	2.349941	0.283079	
0.382813	0.959457	0.554525	0.636440	0.488924	2.297873	0.283048	
0.387019	0.948524	0.574342	0.629039	0.472595	2.246716	0.283003	
0.389892	0.941067	0.587850	0.624271	0.461670	2.212128	0.282973	
0.391358	0.937267	0.594733	0.621928	0.456169	2.194599	0.282958	
0.394231	0.929832	0.608198	0.617508	0.445534	2.160507	0.282927	
0.398438	0.918984	0.627841	0.611453	0.430328	2.111538	0.282867	
0.402644	0.908200	0.647372	0.605871	0.415562	2.063109	0.282822	
0.405517	0.900881	0.660627	0.602328	0.405743	2.030819	0.282776	
0.406983	0.897161	0.667358	0.600598	0.400815	2.014356	0.282761	
0.409856	0.889917	0.680477	0.597373	0.391336	1.982765	0.282716	
0.414063	0.879422	0.699473	0.593019	0.377884	1.937329	0.282656	
0.418269	0.869097	0.718148	0.589082	0.364969	1.893393	0.282580	
0.421142	0.862168	0.730664	0.586633	0.356490	1.864083	0.282535	
0.422608	0.858680	0.736968	0.585459	0.352275	1.849530	0.282505	
0.425481	0.851947	0.749112	0.583280	0.344237	1.821634	0.282444	
0.429688	0.842384	0.766340	0.580426	0.333070	1.782419	0.282354	
0.433894	0.833265	0.782730	0.577943	0.322686	1.745699	0.282248	
0.436767	0.827354	0.793329	0.576460	0.316104	1.722191	0.282172	
0.438233	0.824454	0.798525	0.575771	0.312918	1.710839	0.282127	
0.441106	0.819027	0.808221	0.574535	0.307032	1.689540	0.282051	
0.445313	0.811782	0.821114	0.573029	0.299366	1.662042	0.281900	
0.449519	0.805500	0.832214	0.571839	0.292902	1.638648	0.281749	
0.452392	0.801827	0.838655	0.571199	0.289219	1.625510	0.281628	
0.453858	0.800156	0.841564	0.570919	0.287572	1.619403	0.281583	
0.456731	0.797283	0.846540	0.570476	0.284797	1.609550	0.281462	
0.460938	0.794021	0.852083	0.569989	0.281741	1.598585	0.281311	
0.465144	0.791814	0.855722	0.569699	0.279791	1.591880	0.281160	
0.468017	0.790781	0.857348	0.569585	0.278955	1.589247	0.281055	
0.469483	0.790351	0.858002	0.569538	0.278623	1.588167	0.281009	
0.472356	0.789702	0.858974	0.569473	0.278137	1.586643	0.280934	
0.476563	0.789047	0.859828	0.569399	0.277726	1.585527	0.280828	
0.480769	0.788660	0.860220	0.569355	0.277559	1.585270	0.280737	
0.483642	0.788492	0.860337	0.569345	0.277533	1.585460	0.280677	
0.485108	0.788423	0.860369	0.569338	0.277529	1.585399	0.280662	
0.487981	0.788298	0.860390	0.569327	0.277550	1.585766	0.280601	
0.492188	0.788121	0.860352	0.569291	0.277605	1.586352	0.280511	
0.496394	0.787949	0.860278	0.569242	0.277670	1.586961	0.280420	
0.499267	0.787834	0.860226	0.569215	0.277721	1.587584	0.280345	
0.500733	0.787774	0.860202	0.569201	0.277745	1.587774	0.280314	
0.503606	0.787645	0.860154	0.569175	0.277799	1.588125	0.280254	
0.507813	0.787435	0.860083	0.569123	0.277873	1.589013	0.280133	
0.512019	0.787200	0.860015	0.569069	0.277953	1.589803	0.280012	
0.514892	0.787023	0.859971	0.569031	0.278009	1.590397	0.279922	
0.516358	0.786926	0.859950	0.569010	0.278038	1.590658	0.279876	
0.519231	0.786720	0.859913	0.568962	0.278092	1.591347	0.279771	
0.523438	0.786366	0.859868	0.568872	0.278163	1.592312	0.279604	
0.527644	0.785939	0.859839	0.568752	0.278220	1.593420	0.279408	
0.530517	0.785593	0.859834	0.568652	0.278252	1.594201	0.279257	
0.531983	0.785395	0.859837	0.568597	0.278268	1.594489	0.279182	
0.534856	0.784958	0.859855	0.568471	0.278292	1.595557	0.278985	
0.539063	0.784147	0.859917	0.568245	0.278324	1.597079	0.278653	
0.543269	0.783009	0.860028	0.567932	0.278356	1.599243	0.278185	
0.546142	0.781884	0.860161	0.567625	0.278375	1.601247	0.277731	
0.547608	0.781146	0.860257	0.567426	0.278385	1.602632	0.277429	
0.550481	0.779190	0.860527	0.566898	0.278400	1.606092	0.276644	
0.554688	0.774414	0.861233	0.565605	0.278405	1.614365	0.274741	
0.558894	0.765513	0.862582	0.563164	0.278374	1.629984	0.271191	
0.561767	0.755544	0.864039	0.560371	0.278340	1.647925	0.267204	
0.563233	0.748769	0.865012	0.558448	0.278317	1.660664	0.264470	
0.566106	0.731470	0.867420	0.553452	0.278267	1.693608	0.257506	
0.570313	0.694599	0.872327	0.542470	0.278190	1.769989	0.242522	
0.574519	0.643380	0.878796	0.526584	0.278148	1.891626	0.221467	
0.577392	0.601491	0.883960	0.513141	0.278143	2.007327	0.204096	
0.578858	0.578654	0.886711	0.505636	0.278151	2.077649	0.194595	
0.581731	0.532447	0.892213	0.490108	0.278183	2.238782	0.175352	
0.585938	0.465468	0.899847	0.466733	0.278282	2.531740	0.147529	
0.590144	0.404276	0.906126	0.444399	0.278431	2.885971	0.122471	
0.593017	0.367539	0.909175	0.430455	0.278551	3.156580	0.107713	
0.594483	0.350527	0.910310	0.423848	0.278614	3.301650	0.100977	
0.597356	0.320606	0.911549	0.411939	0.278740	3.594794	0.089316	
0.601563	0.284500	0.911139	0.397014	0.278922	4.033089	0.075616	
0.605769	0.256404	0.908392	0.384866	0.279077	4.459636	0.065314	
0.608642	0.241095	0.905450	0.377988	0.279158	4.735124	0.059847	
0.610108	0.234318	0.903698	0.374872	0.279191	4.866589	0.057475	
0.612981	0.222815	0.899899	0.369463	0.279244	5.111415	0.053487	
0.617188	0.209564	0.893867	0.362994	0.279273	5.426820	0.048986	
0.621394	0.199725	0.887796	0.357990	0.279280	5.685098	0.045724	
0.624267	0.194545	0.883881	0.355258	0.279265	5.835120	0.044017	
0.625733	0.192302	0.881976	0.354048	0.279254	5.900213	0.043292	
0.628606	0.188580	0.878526	0.352019	0.279245	6.015246	0.042083	
0.632813	0.184442	0.874115	0.349675	0.279211	6.142976	0.040769	
0.637019	0.181513	0.870552	0.347960	0.279179	6.241013	0.039833	
0.639892	0.180040	0.868577	0.347073	0.279160	6.291385	0.039365	
0.641358	0.179420	0.867683	0.346689	0.279148	6.312796	0.039168	
0.644231	0.178420	0.866196	0.346062	0.279128	6.347881	0.038851	
0.648438	0.177366	0.864515	0.345392	0.279111	6.384953	0.038519	
0.652644	0.176672	0.863316	0.344941	0.279102	6.407220	0.038307	
0.655517	0.176347	0.862739	0.344730	0.279101	6.419986	0.038202	
0.656983	0.176215	0.862518	0.344647	0.279100	6.420832	0.038171	
0.659856	0.176014	0.862228	0.344514	0.279087	6.432315	0.038096	
0.664063	0.175820	0.861907	0.344395	0.279088	6.439181	0.038035	
0.668269	0.175729	0.861799	0.344366	0.279109	6.442983	0.038005	
0.671142	0.175713	0.861898	0.344365	0.279099	6.441814	0.038005	
0.672608	0.175716	0.861909	0.344373	0.279105	6.442015	0.038005	
0.675481	0.175749	0.861861	0.344383	0.279109	6.439231	0.038020	
0.679688	0.175764	0.861951	0.344422	0.279129	6.440289	0.038020	
0.683894	0.175760	0.862102	0.344437	0.279122	6.440038	0.038020	
0.686767	0.175764	0.862123	0.344455	0.279136	6.440283	0.038020	
0.688233	0.175765	0.862167	0.344468	0.279142	6.440413	0.038020	
0.691106	0.175769	0.862213	0.344497	0.279162	6.440701	0.038020	
0.695313	0.175777	0.862263	0.344540	0.279196	6.441241	0.038020	
0.699519	0.175785	0.862334	0.344589	0.279231	6.441823	0.038020	
0.702392	0.175789	0.862399	0.344621	0.279251	6.442153	0.038020	
0.703858	0.175791	0.862435	0.344636	0.279260	6.442286	0.038020	
0.706731	0.175794	0.862515	0.344663	0.279274	6.442509	0.038020	
0.710938	0.175797	0.862628	0.344700	0.279292	6.442758	0.038020	
0.715144	0.175801	0.862711	0.344732	0.279310	6.443032	0.038020	
0.718017	0.175805	0.862748	0.344755	0.279326	6.443291	0.038020	
0.719483	0.175809	0.862748	0.344769	0.279339	6.443575	0.038020	
0.722356	0.175849	0.862624	0.344793	0.279367	6.441267	0.038035	
0.726563	0.175871	0.862613	0.344845	0.279413	6.442849	0.038035	
0.730769	0.175875	0.862775	0.344894	0.279435	6.443167	0.038035	
0.733642	0.175882	0.862852	0.344937	0.279464	6.443656	0.038035	
0.735108	0.175883	0.862916	0.344956	0.279472	6.443801	0.038035	
0.737981	0.175888	0.863025	0.344996	0.279495	6.444125	0.038035	
0.742188	0.175896	0.863164	0.345058	0.279533	6.444688	0.038035	
0.746394	0.175905	0.863267	0.345124	0.279579	6.445392	0.038035	
0.749267	0.175913	0.863330	0.345171	0.279613	6.445935	0.038035	
0.750733	0.175916	0.863372	0.345194	0.279629	6.446193	0.038035	
0.753606	0.175922	0.863477	0.345240	0.279657	6.446635	0.038035	
0.757813	0.175930	0.863670	0.345312	0.279696	6.447241	0.038035	
0.762019	0.175940	0.863883	0.345393	0.279741	6.447921	0.038035	
0.764892	0.175947	0.864036	0.345453	0.279776	6.448451	0.038035	
0.766358	0.175951	0.864119	0.345485	0.279793	6.448712	0.038035	
0.769231	0.175960	0.864252	0.345554	0.279839	6.449383	0.038035	
0.773438	0.175977	0.864412	0.345666	0.279920	6.450661	0.038035	
0.777644	0.175995	0.864624	0.345781	0.279996	6.451960	0.038035	
0.780517	0.176004	0.864850	0.345861	0.280039	6.452658	0.038035	
0.781983	0.176010	0.864978	0.345909	0.280064	6.453087	0.038035	
0.784856	0.176024	0.865223	0.346011	0.280124	6.454097	0.038035	
0.789063	0.176054	0.865711	0.346210	0.280238	6.456334	0.038035	
0.793269	0.176089	0.866344	0.346445	0.280363	6.458886	0.038035	
0.796142	0.176098	0.866542	0.346525	0.280410	6.459523	0.038035	
0.797608	0.176095	0.866320	0.346506	0.280425	6.459301	0.038035	
0.800481	0.176044	0.865433	0.346231	0.280305	6.455546	0.038035	
0.804688	0.175869	0.863303	0.345363	0.279826	6.453235	0.038005	
0.808894	0.175534	0.859159	0.343703	0.278917	6.444470	0.037960	
0.811767	0.175149	0.853658	0.341755	0.277937	6.437286	0.037899	
0.813233	0.174918	0.850191	0.340460	0.277243	6.425559	0.037884	
0.816106	0.173999	0.838803	0.335907	0.274695	6.400159	0.037764	
0.820313	0.171950	0.810283	0.325357	0.268909	6.338577	0.037507	
0.824519	0.167404	0.745286	0.302180	0.255687	6.190830	0.036963	
0.827392	0.161468	0.655415	0.271353	0.236672	5.942597	0.036404	
0.828858	0.157559	0.586775	0.250212	0.223088	5.736275	0.036162	
0.831731	0.145415	0.372610	0.188689	0.178595	4.975269	0.035845	
0.835938	0.132185	0.087311	0.120041	0.119537	3.666482	0.037899	
0.840144	0.128789	0.004532	0.102539	0.102538	3.229532	0.039304	
0.843017	0.129423	0.017577	0.104699	0.104679	3.282133	0.039183	
0.844483	0.128808	0.004746	0.102513	0.102511	3.227917	0.039319	
0.847356	0.128502	-0.001769	0.101190	0.101190	3.194895	0.039425	
0.851563	0.128671	0.000805	0.101561	0.101561	3.203305	0.039425	
0.855769	0.128618	0.000114	0.101499	0.101499	3.203183	0.039410	
0.858642	0.128582	-0.000680	0.101355	0.101355	3.198906	0.039425	
0.860108	0.128644	0.000355	0.101501	0.101501	3.201952	0.039425	
0.862981	0.128620	0.000063	0.101474	0.101474	3.200783	0.039425	
0.867188	0.128617	-0.000036	0.101455	0.101455	3.200624	0.039425	
0.871394	0.128620	0.000030	0.101465	0.101465	3.200786	0.039425	
0.874267	0.128617	-0.000012	0.101461	0.101461	3.200638	0.039425	
0.875733	0.128618	-0.000022	0.101457	0.101457	3.200656	0.039425	
0.878606	0.128619	0.000008	0.101462	0.101462	3.200726	0.039425	
0.882813	0.128618	-0.000002	0.101461	0.101461	3.200696	0.039425	
0.887019	0.128618	-0.000000	0.101461	0.101461	3.200703	0.039425	
0.889892	0.128619	0.000003	0.101461	0.101461	3.200710	0.039425	
0.891358	0.128618	-0.000001	0.101461	0.101461	3.200698	0.039425	
0.894231	0.128618	-0.000000	0.101461	0.101461	3.200702	0.039425	
0.898438	0.128618	0.000000	0.101461	0.101461	3.200703	0.039425	
0.902644	0.128618	-0.000000	0.101461	0.101461	3.200702	0.039425	
0.905517	0.128618	0.000000	0.101461	0.101461	3.200703	0.039425	
0.906983	0.128618	0.000000	0.101461	0.101461	3.200703	0.039425	
0.909856	0.128618	-0.000000	0.101461	0.101461	3.200702	0.039425	
0.914063	0.128618	0.000000	0.101461	0.101461	3.200702	0.039425	
0.918269	0.128618	0.000000	0.101461	0.101461	3.200702	0.039425	
0.921142	0.128618	-0.000000	0.101461	0.101461	3.200702	0.039425	
0.922608	0.128618	0.000000	0.101461	0.101461	3.200702	0.039425	
0.925481	0.128618	0.000000	0.101461	0.101461	3.200702	0.039425	
0.929688	0.128618	-0.000000	0.101461	0.101461	3.200702	0.039425	
0.933894	0.128618	0.000000	0.101461	0.101461	3.200702	0.039425	
0.936767	0.128618	0.000000	0.101461	0.101461	3.200702	0.039425	
0.938233	0.128618	-0.000000	0.101461	0.101461	3.200702	0.039425	
0.941106	0.128618	0.000000	0.101461	0.101461	3.200702	0.039425	
0.945313	0.128618	0.000000	0.101461	0.101461	3.200702	0.039425	
0.949519	0.128618	0.000000	0.101461	0.101461	3.200702	0.039425	
0.952392	0.128618	0.000000	0.101461	0.101461	3.200702	0.039425	
0.953858	0.128618	0.000000	0.101461	0.101461	3.200702	0.039425	
0.956731	0.128618	0.000000	0.101461	0.101461	3.200702	0.039425	
0.960938	0.128618	0.000000	0.101461	0.101461	3.200702	0.039425	
0.965144	0.128618	0.000000	0.101461	0.101461	3.200702	0.039425	
0.968017	0.128618	0.000000	0.101461	0.101461	3.200702	0.039425	
0.969483	0.128618	0.000000	0.101461	0.101461	3.200702	0.039425	
0.972356	0.128618	0.000000	0.101461	0.101461	3.200702	0.039425	
0.976563	0.128618	0.000000	0.101461	0.101461	3.200702	0.039425	
0.980769	0.128618	0.000000	0.101461	0.101461	3.200702	0.039425	
0.983642	0.128618	0.000000	0.101461	0.101461	3.200702	0.039425	
0.985108	0.128618	0.000000	0.101461	0.101461	3.200702	0.039425	
0.987981	0.128618	0.000000	0.101461	0.101461	3.200702	0.039425	
0.992188	0.128618	0.000000	0.101461	0.101461	3.200702	0.039425	
0.996394	0.128618	0.000000	0.101461	0.101461	3.200702	0.039425	
0.999267	0.128618	0.000000	0.101461	0.101461	3.200702	0.039425	
