TITLE = "DG1DMBX32-P4RK4w10iv20"
VARIABLES = "x" "Density" "Velocity in x" "Energy" "Pressure" "Temperature" "Fugacity"
ZONE T = "Final Time 0.10"
I = 160, J = 1, K = 1, F = POINT

0.001466	0.999820	0.000683	0.997475	0.997475	3.990617	0.282375	
0.007211	0.999860	0.000496	0.997922	0.997922	3.992245	0.282329	
0.015625	0.999884	0.000399	0.998123	0.998123	3.992955	0.282311	
0.024039	0.999740	0.001070	0.996573	0.996572	3.987327	0.282469	
0.029784	0.999535	0.001987	0.994533	0.994531	3.979974	0.282672	
0.032716	0.999436	0.002417	0.993594	0.993591	3.976605	0.282764	
0.038461	0.999332	0.002876	0.992593	0.992588	3.973008	0.282862	
0.046875	0.999317	0.002950	0.992428	0.992424	3.972408	0.282879	
0.055289	0.999263	0.003163	0.992033	0.992028	3.971036	0.282913	
0.061034	0.999097	0.003821	0.990752	0.990745	3.966562	0.283025	
0.063966	0.999017	0.004121	0.990195	0.990186	3.964644	0.283071	
0.069711	0.999022	0.004082	0.990305	0.990297	3.965065	0.283058	
0.078125	0.999195	0.003437	0.991523	0.991517	3.969264	0.282957	
0.086539	0.999004	0.004230	0.989917	0.989908	3.963581	0.283106	
0.092284	0.998350	0.006748	0.985095	0.985072	3.946800	0.283521	
0.095216	0.997953	0.008259	0.982239	0.982205	3.936883	0.283765	
0.100961	0.997374	0.010508	0.977918	0.977863	3.921752	0.284147	
0.109375	0.996951	0.012197	0.974641	0.974567	3.910191	0.284446	
0.117789	0.996564	0.013557	0.972342	0.972251	3.902410	0.284619	
0.123534	0.996012	0.015392	0.969378	0.969260	3.892563	0.284821	
0.126466	0.995794	0.016090	0.968280	0.968151	3.888961	0.284890	
0.132211	0.995862	0.015899	0.968554	0.968428	3.889809	0.284879	
0.140625	0.996088	0.015311	0.969304	0.969187	3.891974	0.284864	
0.149039	0.994893	0.019373	0.962570	0.962384	3.869294	0.285355	
0.154784	0.992823	0.026203	0.951584	0.951243	3.832476	0.286126	
0.157716	0.991828	0.029537	0.946189	0.945756	3.814196	0.286523	
0.163461	0.990405	0.034466	0.938047	0.937458	3.786162	0.287170	
0.171875	0.988851	0.039638	0.929919	0.929143	3.758472	0.287773	
0.180289	0.987146	0.044646	0.923049	0.922065	3.736288	0.288128	
0.186034	0.986129	0.047580	0.919096	0.917979	3.723568	0.288323	
0.188966	0.986139	0.047628	0.918936	0.917818	3.722875	0.288353	
0.194711	0.986556	0.046779	0.919664	0.918584	3.724408	0.288415	
0.203125	0.984962	0.051728	0.912568	0.911250	3.700651	0.288872	
0.211539	0.979236	0.068188	0.890693	0.888416	3.629017	0.290013	
0.217284	0.974731	0.081351	0.873336	0.870111	3.570670	0.291028	
0.220216	0.973214	0.086048	0.866977	0.863374	3.548546	0.291480	
0.225961	0.970448	0.094147	0.856620	0.852319	3.513098	0.292114	
0.234375	0.966609	0.104280	0.845095	0.839840	3.475405	0.292532	
0.242789	0.964017	0.110940	0.837903	0.831970	3.452096	0.292731	
0.248534	0.964240	0.111059	0.837036	0.831090	3.447646	0.292987	
0.251466	0.964406	0.111080	0.836559	0.830609	3.445060	0.293148	
0.257211	0.961670	0.118396	0.828374	0.821634	3.417528	0.293491	
0.265625	0.951387	0.144291	0.801680	0.791776	3.328935	0.294191	
0.274039	0.939305	0.175270	0.770799	0.756371	3.220983	0.295282	
0.279784	0.934433	0.188236	0.758061	0.741506	3.174143	0.295910	
0.282716	0.932093	0.194059	0.752828	0.735277	3.155384	0.296045	
0.288461	0.927260	0.204946	0.744113	0.724639	3.125938	0.295894	
0.296875	0.923473	0.213762	0.736999	0.715900	3.100903	0.295873	
0.305289	0.923002	0.216622	0.733234	0.711578	3.083755	0.296543	
0.311034	0.919049	0.226296	0.725151	0.701618	3.053671	0.296724	
0.313966	0.913531	0.238367	0.716421	0.690468	3.023295	0.296420	
0.319711	0.899880	0.268708	0.695165	0.662678	2.945627	0.295815	
0.328125	0.881782	0.310305	0.667246	0.624793	2.834231	0.295508	
0.336539	0.871273	0.334374	0.652375	0.603669	2.771433	0.295275	
0.342284	0.865606	0.345877	0.646681	0.594905	2.749081	0.294545	
0.345216	0.862413	0.352122	0.643726	0.590261	2.737718	0.294067	
0.350961	0.860663	0.356374	0.641067	0.586413	2.725404	0.294132	
0.359375	0.858628	0.362963	0.636231	0.579672	2.700457	0.294789	
0.367789	0.842887	0.395312	0.621368	0.555508	2.636218	0.292889	
0.373534	0.820345	0.439589	0.604320	0.525059	2.560185	0.289258	
0.376466	0.810719	0.459507	0.596866	0.511275	2.522577	0.287987	
0.382211	0.798307	0.486554	0.586844	0.492350	2.466973	0.286756	
0.390625	0.787045	0.509144	0.579888	0.477877	2.428712	0.284929	
0.399039	0.777921	0.525173	0.576346	0.469068	2.411905	0.282605	
0.404784	0.775726	0.531143	0.574015	0.464594	2.395662	0.282762	
0.407716	0.776388	0.530702	0.573570	0.464237	2.391778	0.283233	
0.413461	0.770513	0.542670	0.570305	0.456850	2.371668	0.282279	
0.421875	0.742615	0.593398	0.560941	0.430196	2.317194	0.275237	
0.430289	0.705095	0.662730	0.550964	0.396121	2.247188	0.265371	
0.436034	0.692906	0.685465	0.548272	0.385487	2.225338	0.262060	
0.438966	0.692700	0.687164	0.547783	0.384238	2.218784	0.262369	
0.444711	0.686220	0.697492	0.547102	0.380180	2.216084	0.260073	
0.453125	0.674962	0.715424	0.545989	0.373256	2.212010	0.256042	
0.461539	0.671922	0.723265	0.544728	0.368983	2.196580	0.255782	
0.467284	0.666085	0.733706	0.543950	0.364665	2.189903	0.253946	
0.470216	0.650082	0.758666	0.543193	0.356108	2.191159	0.247774	
0.475961	0.617788	0.811137	0.541979	0.338744	2.193273	0.235352	
0.484375	0.586778	0.863622	0.541094	0.322272	2.196892	0.223354	
0.492789	0.579224	0.873390	0.541079	0.320161	2.210963	0.219776	
0.498534	0.572039	0.884013	0.540966	0.317448	2.219761	0.216620	
0.501466	0.568301	0.889456	0.540932	0.316132	2.225104	0.214945	
0.507211	0.561067	0.899792	0.540812	0.313685	2.236346	0.211675	
0.515625	0.553244	0.911940	0.540792	0.310744	2.246704	0.208242	
0.524039	0.521513	0.954070	0.539889	0.302536	2.320449	0.193154	
0.529784	0.488266	1.000869	0.538653	0.294095	2.409305	0.177474	
0.532716	0.471700	1.025420	0.537878	0.289885	2.458212	0.169739	
0.538461	0.464641	1.032789	0.537050	0.289244	2.490044	0.166127	
0.546875	0.459721	1.033631	0.535711	0.290130	2.524404	0.163245	
0.555289	0.446587	1.050863	0.534507	0.287921	2.578861	0.156898	
0.561034	0.438705	1.061125	0.533757	0.286769	2.614686	0.153069	
0.563966	0.437741	1.059682	0.533221	0.287445	2.626628	0.152385	
0.569711	0.424007	1.072952	0.530421	0.286357	2.701440	0.145546	
0.578125	0.384105	1.110033	0.520239	0.283598	2.953336	0.126101	
0.586539	0.353920	1.135856	0.510717	0.282409	3.191776	0.111767	
0.592284	0.346651	1.138785	0.507379	0.282605	3.260980	0.108304	
0.595216	0.346634	1.137187	0.506906	0.282773	3.263072	0.108264	
0.600961	0.343073	1.135682	0.504535	0.283292	3.302997	0.106502	
0.609375	0.332005	1.145188	0.500915	0.283210	3.412114	0.101405	
0.617789	0.318952	1.149005	0.493959	0.283417	3.554347	0.095449	
0.623534	0.305560	1.145088	0.484096	0.283767	3.714723	0.089445	
0.626466	0.295556	1.142833	0.476813	0.283805	3.840962	0.085084	
0.632211	0.272595	1.138352	0.460304	0.283683	4.162705	0.075380	
0.640625	0.256510	1.126878	0.446460	0.283595	4.422355	0.068818	
0.649039	0.254114	1.119235	0.442647	0.283484	4.462300	0.067870	
0.654784	0.252111	1.116789	0.440676	0.283457	4.497332	0.067072	
0.657716	0.248837	1.114867	0.438101	0.283458	4.556516	0.065769	
0.663461	0.243088	1.109723	0.433220	0.283540	4.665631	0.063494	
0.671875	0.232851	1.087764	0.420082	0.282324	4.849856	0.059654	
0.680289	0.215723	1.037842	0.394898	0.278718	5.168091	0.053537	
0.686034	0.202999	0.994732	0.375870	0.275437	5.427342	0.049162	
0.688966	0.197956	0.976013	0.368261	0.273975	5.536083	0.047467	
0.694711	0.194717	0.959768	0.362069	0.272387	5.595527	0.046442	
0.703125	0.194983	0.955529	0.360610	0.271597	5.571697	0.046605	
0.711539	0.192033	0.942873	0.355900	0.270541	5.635303	0.045640	
0.717284	0.187928	0.923939	0.349090	0.268876	5.722948	0.044321	
0.720216	0.185995	0.911936	0.344930	0.267591	5.754802	0.043743	
0.725961	0.181952	0.881316	0.334460	0.263797	5.799286	0.042628	
0.734375	0.171309	0.796477	0.307458	0.253121	5.910278	0.039756	
0.742789	0.162289	0.714853	0.284096	0.242630	5.980185	0.037442	
0.748534	0.160122	0.691039	0.277423	0.239191	5.975211	0.036957	
0.751466	0.160472	0.692199	0.277457	0.239013	5.957739	0.037092	
0.757211	0.161024	0.694135	0.277497	0.238704	5.929665	0.037308	
0.765625	0.159072	0.673683	0.271959	0.235862	5.930955	0.036852	
0.774039	0.155909	0.637283	0.262200	0.230541	5.914751	0.036168	
0.779784	0.153531	0.603713	0.252883	0.224904	5.859524	0.035784	
0.782716	0.152170	0.582451	0.246939	0.221127	5.812647	0.035610	
0.788461	0.147956	0.519059	0.230269	0.210337	5.686498	0.035005	
0.796875	0.142452	0.430911	0.208535	0.195310	5.484213	0.034319	
0.805289	0.140827	0.399739	0.200600	0.189349	5.378196	0.034260	
0.811034	0.141160	0.401915	0.200510	0.189109	5.358719	0.034404	
0.813966	0.141138	0.400488	0.199971	0.188653	5.346625	0.034437	
0.819711	0.140086	0.381395	0.195362	0.185173	5.287403	0.034372	
0.828125	0.138292	0.347695	0.187389	0.179030	5.178312	0.034287	
0.836539	0.136550	0.309439	0.177705	0.171167	5.014050	0.034405	
0.842284	0.134953	0.272235	0.168254	0.163253	4.838815	0.034613	
0.845216	0.133864	0.247242	0.162158	0.158066	4.723195	0.034751	
0.850961	0.131607	0.194786	0.149783	0.147287	4.476569	0.035094	
0.859375	0.130174	0.158924	0.141248	0.139604	4.289761	0.035460	
0.867789	0.130207	0.157435	0.140462	0.138848	4.265452	0.035570	
0.873534	0.130155	0.155209	0.139755	0.138187	4.246855	0.035633	
0.876466	0.129873	0.148257	0.138147	0.136720	4.210879	0.035707	
0.882211	0.129196	0.131106	0.134196	0.133086	4.120437	0.035909	
0.890625	0.128641	0.115906	0.130534	0.129670	4.031984	0.036145	
0.899039	0.128073	0.098675	0.126044	0.125420	3.917144	0.036509	
0.904784	0.127413	0.078984	0.121028	0.120631	3.787064	0.036939	
0.907716	0.126981	0.066271	0.117874	0.117595	3.704328	0.037223	
0.913461	0.126278	0.045102	0.112608	0.112480	3.562913	0.037744	
0.921875	0.126040	0.037218	0.110530	0.110443	3.505018	0.037983	
0.930289	0.126164	0.040614	0.111284	0.111180	3.524936	0.037913	
0.936034	0.126135	0.039727	0.111064	0.110965	3.518920	0.037936	
0.938966	0.126038	0.036814	0.110348	0.110262	3.499321	0.038013	
0.944711	0.125845	0.030698	0.108798	0.108739	3.456273	0.038191	
0.953125	0.125756	0.027755	0.108038	0.107990	3.434888	0.038282	
0.961539	0.125709	0.025996	0.107534	0.107492	3.420347	0.038349	
0.967284	0.125587	0.021733	0.106347	0.106318	3.386269	0.038504	
0.970216	0.125482	0.018098	0.105341	0.105321	3.357306	0.038638	
0.975961	0.125271	0.010559	0.103222	0.103215	3.295742	0.038931	
0.984375	0.125122	0.004998	0.101605	0.101603	3.248133	0.039169	
0.992789	0.125138	0.005493	0.101721	0.101719	3.251415	0.039154	
0.998534	0.125173	0.006753	0.102096	0.102093	3.262481	0.039098	
