TITLE = "DG1DBEX32-P4RK4w10iv80"
VARIABLES = "x" "Density" "Velocity in x" "Energy" "Pressure" "Temperature" "Fugacity"
ZONE T = "Final Time 0.10"
I = 160, J = 1, K = 1, F = POINT

0.001466	1.260360	0.000560	1.116692	1.116692	3.993859	0.282248	
0.007211	1.260310	0.000734	1.116227	1.116227	3.992456	0.282278	
0.015625	1.260246	0.000968	1.115577	1.115576	3.990420	0.282323	
0.024039	1.260225	0.001068	1.115260	1.115259	3.989201	0.282354	
0.029784	1.260191	0.001189	1.114926	1.114925	3.988446	0.282369	
0.032716	1.260141	0.001351	1.114514	1.114513	3.987046	0.282399	
0.038461	1.260041	0.001683	1.113654	1.113653	3.984243	0.282459	
0.046875	1.259953	0.002004	1.112763	1.112760	3.981517	0.282520	
0.055289	1.259886	0.002251	1.112069	1.112066	3.979474	0.282565	
0.061034	1.259741	0.002703	1.110959	1.110955	3.975853	0.282641	
0.063966	1.259633	0.003034	1.110157	1.110151	3.973548	0.282686	
0.069711	1.259487	0.003509	1.108943	1.108935	3.969930	0.282761	
0.078125	1.259352	0.003986	1.107658	1.107648	3.965845	0.282852	
0.086539	1.259101	0.004759	1.105790	1.105776	3.960497	0.282958	
0.092284	1.258753	0.005770	1.103470	1.103449	3.953474	0.283094	
0.095216	1.258597	0.006236	1.102367	1.102343	3.949813	0.283169	
0.100961	1.258417	0.006835	1.100849	1.100820	3.945469	0.283260	
0.109375	1.258094	0.007835	1.098452	1.098413	3.938098	0.283411	
0.117789	1.257411	0.009736	1.094298	1.094239	3.925294	0.283653	
0.123534	1.256845	0.011323	1.090820	1.090739	3.915383	0.283834	
0.126466	1.256681	0.011834	1.089605	1.089517	3.911185	0.283924	
0.132211	1.256372	0.012791	1.087363	1.087260	3.904496	0.284060	
0.140625	1.255502	0.015144	1.082421	1.082277	3.890123	0.284317	
0.149039	1.254165	0.018634	1.075342	1.075124	3.869257	0.284680	
0.154784	1.253473	0.020563	1.071235	1.070970	3.856642	0.284921	
0.157716	1.253255	0.021237	1.069713	1.069431	3.852175	0.285012	
0.163461	1.252446	0.023351	1.065483	1.065142	3.839414	0.285239	
0.171875	1.250537	0.028047	1.056616	1.056125	3.813791	0.285646	
0.180289	1.248559	0.033013	1.047155	1.046475	3.785881	0.286115	
0.186034	1.247698	0.035365	1.042433	1.041653	3.771503	0.286386	
0.188966	1.247098	0.036863	1.039642	1.038795	3.762808	0.286538	
0.194711	1.245179	0.041284	1.031963	1.030902	3.740649	0.286855	
0.203125	1.241990	0.048655	1.019254	1.017784	3.703547	0.287398	
0.211539	1.239497	0.054738	1.008454	1.006597	3.671399	0.287927	
0.217284	1.237765	0.058807	1.001537	0.999396	3.650850	0.288244	
0.220216	1.236217	0.062112	0.996381	0.993996	3.635874	0.288426	
0.225961	1.232843	0.069313	0.985259	0.982297	3.603966	0.288803	
0.234375	1.228659	0.078631	0.970566	0.966767	3.559965	0.289423	
0.242789	1.225098	0.086647	0.958065	0.953466	3.522376	0.289966	
0.248534	1.221094	0.094729	0.946773	0.941294	3.489131	0.290299	
0.251466	1.218366	0.100080	0.939557	0.933456	3.468467	0.290465	
0.257211	1.214048	0.108980	0.927200	0.919991	3.431099	0.290888	
0.265625	1.209027	0.119710	0.912173	0.903511	3.384703	0.291492	
0.274039	1.202446	0.132584	0.895865	0.885297	3.335520	0.291915	
0.279784	1.195382	0.145639	0.880604	0.867927	3.289444	0.292156	
0.282716	1.192224	0.151670	0.873444	0.859731	3.267310	0.292323	
0.288461	1.187799	0.160726	0.862261	0.846919	3.231504	0.292730	
0.296875	1.180480	0.174770	0.846265	0.828236	3.180397	0.293138	
0.305289	1.168683	0.195442	0.825506	0.803185	3.115497	0.293199	
0.311034	1.160159	0.210644	0.810538	0.784799	3.066561	0.293335	
0.313966	1.157682	0.215621	0.805235	0.778323	3.048229	0.293531	
0.319711	1.152289	0.225814	0.795108	0.765729	3.013505	0.293773	
0.328125	1.139491	0.247310	0.776791	0.741944	2.952401	0.293561	
0.336539	1.123256	0.274216	0.755536	0.713305	2.878765	0.293168	
0.342284	1.116238	0.286935	0.744997	0.699046	2.839144	0.293320	
0.345216	1.113656	0.291886	0.740856	0.693416	2.823031	0.293440	
0.350961	1.103817	0.307639	0.730078	0.677844	2.783677	0.293017	
0.359375	1.084159	0.338081	0.711337	0.649378	2.713354	0.291839	
0.367789	1.068183	0.364250	0.695412	0.624550	2.647677	0.291250	
0.373534	1.061990	0.375119	0.688690	0.613972	2.618110	0.291205	
0.376466	1.055708	0.384509	0.684064	0.606022	2.598971	0.290691	
0.382211	1.038938	0.408803	0.673278	0.586465	2.553620	0.289060	
0.390625	1.016956	0.442036	0.659028	0.559674	2.487059	0.287217	
0.399039	1.003802	0.463131	0.650000	0.542347	2.440803	0.286402	
0.404784	0.991272	0.481263	0.644029	0.529233	2.409976	0.285012	
0.407716	0.979377	0.497365	0.639573	0.518438	2.387460	0.283366	
0.413461	0.959623	0.525115	0.632060	0.499754	2.345785	0.280798	
0.421875	0.942168	0.551639	0.624727	0.481374	2.299303	0.278955	
0.430289	0.925211	0.575297	0.619752	0.466645	2.266964	0.276523	
0.436034	0.899985	0.608502	0.614744	0.448124	2.233171	0.272143	
0.438966	0.888190	0.624581	0.612442	0.439200	2.215290	0.270164	
0.444711	0.874133	0.644552	0.609471	0.427893	2.190605	0.267944	
0.453125	0.858550	0.666022	0.606841	0.416421	2.167822	0.265225	
0.461539	0.828122	0.704828	0.604172	0.398474	2.143499	0.258820	
0.467284	0.798132	0.743261	0.602218	0.381759	2.123767	0.252159	
0.470216	0.793193	0.750041	0.601817	0.378707	2.119090	0.251117	
0.475961	0.786908	0.758910	0.601218	0.374610	2.111504	0.249863	
0.484375	0.760339	0.790799	0.600595	0.362851	2.109625	0.243051	
0.492789	0.718223	0.843064	0.599988	0.344747	2.110689	0.231874	
0.498534	0.706611	0.856523	0.599834	0.340638	2.116471	0.228505	
0.501466	0.701593	0.862277	0.599747	0.338922	2.119440	0.227025	
0.507211	0.689844	0.875930	0.599594	0.334951	2.126765	0.223536	
0.515625	0.647135	0.924797	0.598972	0.322241	2.167648	0.210183	
0.524039	0.619284	0.957262	0.598327	0.314586	2.202288	0.201136	
0.529784	0.612027	0.963000	0.597701	0.313913	2.220796	0.198417	
0.532716	0.606521	0.967949	0.597280	0.313148	2.233229	0.196423	
0.538461	0.575199	1.001904	0.595279	0.306583	2.294257	0.185517	
0.546875	0.542448	1.036911	0.592506	0.300891	2.375473	0.173675	
0.555289	0.524352	1.052719	0.589747	0.299199	2.436276	0.166742	
0.561034	0.508433	1.065688	0.586651	0.297940	2.495307	0.160580	
0.563966	0.495633	1.077255	0.584281	0.296696	2.543789	0.155671	
0.569711	0.468424	1.103653	0.579132	0.293850	2.653815	0.145279	
0.578125	0.448569	1.119452	0.573946	0.292879	2.753406	0.137454	
0.586539	0.428271	1.130221	0.566396	0.292860	2.873369	0.129313	
0.592284	0.406638	1.145322	0.558761	0.292055	3.007787	0.120824	
0.595216	0.393822	1.155236	0.554259	0.291467	3.092721	0.115855	
0.600961	0.379630	1.162933	0.548249	0.291540	3.202577	0.110236	
0.609375	0.364281	1.165080	0.539266	0.292026	3.334315	0.104164	
0.617789	0.340436	1.169894	0.525251	0.292283	3.557794	0.094920	
0.623534	0.322657	1.174187	0.514796	0.292370	3.745724	0.088138	
0.626466	0.315963	1.174499	0.510399	0.292472	3.822916	0.085600	
0.632211	0.309072	1.169799	0.504212	0.292741	3.907613	0.082987	
0.640625	0.292383	1.159537	0.489350	0.292792	4.120881	0.076809	
0.649039	0.272485	1.147710	0.472096	0.292632	4.406285	0.069604	
0.654784	0.262731	1.138101	0.462572	0.292418	4.562031	0.066130	
0.657716	0.260248	1.132501	0.459135	0.292244	4.601045	0.065269	
0.663461	0.253496	1.118508	0.450083	0.291513	4.708122	0.062958	
0.671875	0.237957	1.090132	0.431390	0.289998	4.977896	0.057702	
0.680289	0.226148	1.062729	0.416010	0.288305	5.201138	0.053805	
0.686034	0.221522	1.045703	0.408041	0.286924	5.282181	0.052355	
0.688966	0.219443	1.036262	0.403869	0.286046	5.313199	0.051735	
0.694711	0.211776	1.008165	0.391238	0.283614	5.454462	0.049364	
0.703125	0.201366	0.966752	0.374098	0.279999	5.654584	0.046207	
0.711539	0.195440	0.934102	0.361764	0.276499	5.749534	0.044530	
0.717284	0.191944	0.910114	0.353069	0.273575	5.790367	0.043609	
0.720216	0.189258	0.893439	0.347178	0.271642	5.831858	0.042869	
0.725961	0.183137	0.855405	0.334410	0.267408	5.928895	0.041192	
0.734375	0.177846	0.815517	0.321550	0.262410	5.986722	0.039848	
0.742789	0.173975	0.778263	0.309672	0.256985	5.992328	0.038987	
0.748534	0.170378	0.744096	0.299289	0.252122	6.002528	0.038171	
0.751466	0.168006	0.722414	0.293027	0.249188	6.016198	0.037612	
0.757211	0.164632	0.688612	0.283420	0.244387	6.017789	0.036872	
0.765625	0.161828	0.652932	0.272922	0.238427	5.969182	0.036404	
0.774039	0.158249	0.606286	0.259728	0.230643	5.907581	0.035800	
0.779784	0.155205	0.567220	0.249321	0.224353	5.858653	0.035271	
0.782716	0.153798	0.548422	0.244421	0.221293	5.829418	0.035045	
0.788461	0.152268	0.524216	0.237767	0.216845	5.769978	0.034879	
0.796875	0.149952	0.484730	0.226894	0.209277	5.650887	0.034712	
0.805289	0.146822	0.433119	0.213593	0.199822	5.510450	0.034425	
0.811034	0.144875	0.399717	0.205216	0.193642	5.413825	0.034274	
0.813966	0.144238	0.387358	0.201978	0.191157	5.366354	0.034274	
0.819711	0.143278	0.366491	0.196254	0.186631	5.276079	0.034335	
0.828125	0.141107	0.322728	0.185069	0.177721	5.098959	0.034395	
0.836539	0.138953	0.278718	0.174232	0.168835	4.922321	0.034471	
0.842284	0.137959	0.256385	0.168572	0.164038	4.817447	0.034592	
0.845216	0.137644	0.248123	0.166311	0.162074	4.769826	0.034682	
0.850961	0.136766	0.226764	0.160759	0.157242	4.659097	0.034863	
0.859375	0.135160	0.189401	0.151599	0.149174	4.470516	0.035166	
0.867789	0.134038	0.161621	0.144690	0.142939	4.320108	0.035468	
0.873534	0.133573	0.148548	0.141204	0.139730	4.238138	0.035679	
0.876466	0.133336	0.141775	0.139388	0.138048	4.193902	0.035800	
0.882211	0.132633	0.123379	0.134796	0.133787	4.089361	0.036057	
0.890625	0.131775	0.100693	0.129191	0.128523	3.951249	0.036434	
0.899039	0.131309	0.086935	0.125552	0.125055	3.860615	0.036721	
0.904784	0.131045	0.078690	0.123292	0.122887	3.800053	0.036933	
0.907716	0.130851	0.073063	0.121840	0.121491	3.763430	0.037054	
0.913461	0.130435	0.061321	0.118899	0.118653	3.686850	0.037310	
0.921875	0.130102	0.051274	0.116259	0.116088	3.616744	0.037567	
0.930289	0.129901	0.044482	0.114328	0.114199	3.564217	0.037779	
0.936034	0.129717	0.038611	0.112732	0.112635	3.522213	0.037945	
0.938966	0.129591	0.034826	0.111753	0.111675	3.495330	0.038050	
0.944711	0.129417	0.029432	0.110338	0.110282	3.454839	0.038217	
0.953125	0.129315	0.025748	0.109260	0.109217	3.424318	0.038353	
0.961539	0.129197	0.021540	0.108043	0.108013	3.390558	0.038504	
0.967284	0.129080	0.017678	0.106995	0.106975	3.362700	0.038624	
0.970216	0.129024	0.015816	0.106498	0.106482	3.348958	0.038685	
0.975961	0.128978	0.014114	0.106016	0.106003	3.333208	0.038760	
0.984375	0.128943	0.012446	0.105506	0.105496	3.318047	0.038836	
0.992789	0.128867	0.009556	0.104698	0.104693	3.295698	0.038942	
0.998534	0.128812	0.007499	0.104147	0.104144	3.279791	0.039017	
