TITLE = "DG1DMBX32-P4RK3w1000iv80"
VARIABLES = "x" "Density" "Velocity in x" "Energy" "Pressure" "Temperature" "Fugacity"
ZONE T = "Final Time 0.10"
I = 160, J = 1, K = 1, F = POINT

0.001466	1.000000	-0.000000	1.000000	1.000000	4.000000	0.282095	
0.007211	1.000000	-0.000000	1.000000	1.000000	4.000000	0.282095	
0.015625	1.000000	-0.000000	1.000000	1.000000	4.000000	0.282095	
0.024039	1.000000	-0.000000	1.000000	1.000000	4.000000	0.282095	
0.029784	1.000000	-0.000000	1.000000	1.000000	4.000000	0.282095	
0.032716	1.000000	-0.000000	1.000000	1.000000	4.000000	0.282095	
0.038461	1.000000	-0.000000	1.000000	1.000000	4.000000	0.282095	
0.046875	1.000000	-0.000000	1.000000	1.000000	4.000000	0.282095	
0.055289	1.000000	0.000000	1.000000	1.000000	4.000000	0.282095	
0.061034	1.000000	-0.000000	1.000000	1.000000	4.000000	0.282095	
0.063966	1.000000	-0.000000	1.000000	1.000000	4.000000	0.282095	
0.069711	1.000000	0.000000	1.000000	1.000000	4.000000	0.282095	
0.078125	1.000000	0.000000	1.000000	1.000000	4.000000	0.282095	
0.086539	1.000000	-0.000000	1.000000	1.000000	4.000000	0.282095	
0.092284	1.000000	0.000000	1.000000	1.000000	4.000000	0.282095	
0.095216	1.000000	0.000000	1.000000	1.000000	4.000000	0.282095	
0.100961	1.000000	-0.000000	1.000000	1.000000	4.000000	0.282095	
0.109375	1.000000	0.000000	1.000000	1.000000	4.000000	0.282095	
0.117789	1.000000	-0.000000	1.000000	1.000000	4.000000	0.282095	
0.123534	1.000000	-0.000000	1.000000	1.000000	4.000000	0.282095	
0.126466	1.000000	0.000000	1.000000	1.000000	4.000000	0.282095	
0.132211	1.000000	0.000000	1.000000	1.000000	4.000000	0.282095	
0.140625	1.000000	-0.000000	1.000000	1.000000	4.000000	0.282095	
0.149039	1.000000	0.000000	1.000000	1.000000	4.000000	0.282095	
0.154784	1.000000	0.000000	1.000000	1.000000	4.000000	0.282095	
0.157716	1.000000	-0.000000	1.000000	1.000000	4.000000	0.282095	
0.163461	1.000000	0.000000	1.000000	1.000000	4.000000	0.282095	
0.171875	1.000000	0.000000	1.000000	1.000000	4.000000	0.282095	
0.180289	1.000000	-0.000000	1.000000	1.000000	4.000000	0.282095	
0.186034	1.000000	0.000000	1.000000	1.000000	4.000000	0.282095	
0.188966	1.000000	0.000000	1.000000	1.000000	4.000000	0.282095	
0.194711	1.000000	-0.000000	1.000000	1.000000	4.000000	0.282095	
0.203125	1.000000	0.000000	1.000000	1.000000	4.000000	0.282095	
0.211539	1.000000	0.000000	1.000000	1.000000	4.000000	0.282095	
0.217284	1.000000	-0.000000	1.000000	1.000000	4.000000	0.282095	
0.220216	1.000000	-0.000000	1.000000	1.000000	4.000000	0.282095	
0.225961	1.000000	0.000000	1.000000	1.000000	4.000000	0.282095	
0.234375	1.000000	-0.000000	1.000000	1.000000	4.000000	0.282095	
0.242789	1.000000	-0.000000	1.000000	1.000000	4.000000	0.282095	
0.248534	1.000000	0.000000	1.000000	1.000000	4.000000	0.282095	
0.251466	1.000000	0.000000	1.000000	1.000000	4.000000	0.282095	
0.257211	1.000000	-0.000000	1.000000	1.000000	4.000000	0.282095	
0.265625	1.000000	0.000000	1.000000	1.000000	4.000000	0.282095	
0.274039	1.000000	0.000000	1.000000	1.000000	4.000000	0.282095	
0.279784	1.000000	-0.000001	1.000001	1.000001	4.000002	0.282095	
0.282716	1.000000	-0.000000	1.000000	1.000000	4.000000	0.282095	
0.288461	1.000000	0.000001	0.999999	0.999999	3.999998	0.282095	
0.296875	1.000000	-0.000000	1.000001	1.000001	4.000003	0.282095	
0.305289	1.000000	-0.000001	1.000001	1.000001	4.000001	0.282095	
0.311034	0.999999	0.000004	0.999995	0.999995	3.999984	0.282095	
0.313966	0.999998	0.000003	0.999997	0.999997	3.999993	0.282095	
0.319711	1.000002	-0.000005	1.000006	1.000006	4.000020	0.282095	
0.328125	1.000000	0.000001	0.999998	0.999998	3.999991	0.282095	
0.336539	0.999995	0.000013	0.999985	0.999985	3.999960	0.282095	
0.342284	1.000004	-0.000017	1.000026	1.000026	4.000089	0.282093	
0.345216	1.000016	-0.000041	1.000052	1.000052	4.000143	0.282094	
0.350961	0.999998	0.000014	0.999976	0.999976	3.999914	0.282097	
0.359375	0.999980	0.000044	0.999947	0.999947	3.999865	0.282094	
0.367789	1.000042	-0.000121	1.000177	1.000177	4.000537	0.282088	
0.373534	1.000072	-0.000156	1.000168	1.000168	4.000387	0.282101	
0.376466	0.999995	0.000054	0.999848	0.999848	3.999412	0.282114	
0.382211	0.999840	0.000431	0.999429	0.999429	3.998355	0.282108	
0.390625	0.999541	0.001299	0.998169	0.998168	3.994504	0.282159	
0.399039	0.997141	0.007978	0.988904	0.988872	3.966830	0.282462	
0.404784	0.991969	0.021954	0.970707	0.970468	3.913300	0.282912	
0.407716	0.987560	0.033359	0.956480	0.955930	3.871889	0.283157	
0.413461	0.975390	0.064617	0.919583	0.917546	3.762788	0.283693	
0.421875	0.949302	0.129780	0.850401	0.842406	3.549583	0.284276	
0.430289	0.915331	0.213477	0.774276	0.753419	3.292442	0.284606	
0.436034	0.888989	0.277733	0.724274	0.689987	3.104593	0.284655	
0.438966	0.874644	0.312471	0.699987	0.657288	3.005970	0.284619	
0.444711	0.845517	0.383199	0.656257	0.594179	2.810961	0.284525	
0.453125	0.800522	0.491742	0.602502	0.505715	2.526926	0.284120	
0.461539	0.754407	0.602763	0.562206	0.425159	2.254270	0.283483	
0.467284	0.723455	0.676749	0.542481	0.376814	2.083417	0.282780	
0.470216	0.708549	0.712326	0.534817	0.355055	2.004408	0.282359	
0.475961	0.682585	0.774018	0.524080	0.319610	1.872942	0.281397	
0.484375	0.655709	0.835719	0.516490	0.287508	1.753873	0.279343	
0.492789	0.643863	0.859581	0.514297	0.276429	1.717312	0.277201	
0.498534	0.639299	0.864419	0.513463	0.274614	1.718220	0.275163	
0.501466	0.636761	0.865026	0.512881	0.274646	1.725270	0.273510	
0.507211	0.633304	0.867198	0.512139	0.274007	1.730650	0.271602	
0.515625	0.597113	0.882096	0.505444	0.273139	1.829730	0.249051	
0.524039	0.480276	0.912753	0.473617	0.273554	2.278303	0.179519	
0.529784	0.372411	0.940689	0.438777	0.274005	2.943042	0.122475	
0.532716	0.323014	0.947680	0.420138	0.275089	3.406521	0.098740	
0.538461	0.250490	0.948669	0.388738	0.276021	4.407688	0.067315	
0.546875	0.196477	0.920359	0.359865	0.276651	5.632236	0.046709	
0.555289	0.177631	0.890164	0.346682	0.276306	6.222006	0.040177	
0.561034	0.173360	0.881085	0.343071	0.275780	6.363181	0.038774	
0.563966	0.172245	0.876315	0.342052	0.275916	6.407527	0.038391	
0.569711	0.171334	0.873145	0.341456	0.276145	6.446955	0.038071	
0.578125	0.170658	0.870936	0.340447	0.275722	6.462547	0.037875	
0.586539	0.170747	0.865047	0.339981	0.276095	6.467927	0.037879	
0.592284	0.170733	0.859158	0.338210	0.275197	6.447416	0.037936	
0.595216	0.169453	0.853050	0.332396	0.270741	6.390926	0.037818	
0.600961	0.168360	0.845595	0.331759	0.271568	6.452067	0.037395	
0.609375	0.152681	0.590193	0.245817	0.219226	5.743365	0.035944	
0.617789	0.129622	0.103582	0.121489	0.120793	3.727550	0.037879	
0.623534	0.120548	-0.083951	0.087018	0.086593	2.873304	0.040123	
0.626466	0.125860	0.013766	0.101448	0.101437	3.223801	0.039548	
0.632211	0.126316	0.025414	0.104325	0.104284	3.302327	0.039217	
0.640625	0.124356	-0.011112	0.098391	0.098383	3.164556	0.039440	
0.649039	0.125268	0.003581	0.100384	0.100383	3.205403	0.039475	
0.654784	0.125297	0.007158	0.101199	0.101196	3.230610	0.039330	
0.657716	0.124627	-0.006530	0.099202	0.099199	3.183894	0.039405	
0.663461	0.124998	-0.000519	0.099840	0.099840	3.194907	0.039455	
0.671875	0.125031	0.000766	0.100137	0.100137	3.203584	0.039412	
0.680289	0.124967	-0.000653	0.099903	0.099903	3.197727	0.039428	
0.686034	0.125021	0.000200	0.100005	0.100005	3.199624	0.039433	
0.688966	0.125024	0.000578	0.100098	0.100098	3.202533	0.039416	
0.694711	0.124991	-0.000157	0.099979	0.099979	3.199564	0.039424	
0.703125	0.125002	0.000015	0.100001	0.100001	3.199982	0.039425	
0.711539	0.125001	0.000033	0.100006	0.100006	3.200157	0.039423	
0.717284	0.124996	-0.000078	0.099989	0.099989	3.199754	0.039424	
0.720216	0.125001	0.000003	0.099999	0.099999	3.199936	0.039425	
0.725961	0.125001	0.000017	0.100003	0.100003	3.200073	0.039424	
0.734375	0.125000	-0.000007	0.099999	0.099999	3.199976	0.039424	
0.742789	0.125000	0.000002	0.100000	0.100000	3.200004	0.039424	
0.748534	0.125000	0.000005	0.100001	0.100001	3.200021	0.039424	
0.751466	0.125000	-0.000004	0.099999	0.099999	3.199988	0.039424	
0.757211	0.125000	-0.000000	0.100000	0.100000	3.199997	0.039424	
0.765625	0.125000	0.000000	0.100000	0.100000	3.200002	0.039424	
0.774039	0.125000	-0.000000	0.100000	0.100000	3.199999	0.039424	
0.779784	0.125000	0.000000	0.100000	0.100000	3.200000	0.039424	
0.782716	0.125000	0.000000	0.100000	0.100000	3.200001	0.039424	
0.788461	0.125000	-0.000000	0.100000	0.100000	3.200000	0.039424	
0.796875	0.125000	0.000000	0.100000	0.100000	3.200000	0.039424	
0.805289	0.125000	0.000000	0.100000	0.100000	3.200000	0.039424	
0.811034	0.125000	-0.000000	0.100000	0.100000	3.200000	0.039424	
0.813966	0.125000	-0.000000	0.100000	0.100000	3.200000	0.039424	
0.819711	0.125000	0.000000	0.100000	0.100000	3.200000	0.039424	
0.828125	0.125000	-0.000000	0.100000	0.100000	3.200000	0.039424	
0.836539	0.125000	0.000000	0.100000	0.100000	3.200000	0.039424	
0.842284	0.125000	0.000000	0.100000	0.100000	3.200000	0.039424	
0.845216	0.125000	-0.000000	0.100000	0.100000	3.200000	0.039424	
0.850961	0.125000	-0.000000	0.100000	0.100000	3.200000	0.039424	
0.859375	0.125000	0.000000	0.100000	0.100000	3.200000	0.039424	
0.867789	0.125000	-0.000000	0.100000	0.100000	3.200000	0.039424	
0.873534	0.125000	0.000000	0.100000	0.100000	3.200000	0.039424	
0.876466	0.125000	0.000000	0.100000	0.100000	3.200000	0.039424	
0.882211	0.125000	-0.000000	0.100000	0.100000	3.200000	0.039424	
0.890625	0.125000	0.000000	0.100000	0.100000	3.200000	0.039424	
0.899039	0.125000	0.000000	0.100000	0.100000	3.200000	0.039424	
0.904784	0.125000	-0.000000	0.100000	0.100000	3.200000	0.039424	
0.907716	0.125000	0.000000	0.100000	0.100000	3.200000	0.039424	
0.913461	0.125000	0.000000	0.100000	0.100000	3.200000	0.039424	
0.921875	0.125000	-0.000000	0.100000	0.100000	3.200000	0.039424	
0.930289	0.125000	0.000000	0.100000	0.100000	3.200000	0.039424	
0.936034	0.125000	0.000000	0.100000	0.100000	3.200000	0.039424	
0.938966	0.125000	-0.000000	0.100000	0.100000	3.200000	0.039424	
0.944711	0.125000	0.000000	0.100000	0.100000	3.200000	0.039424	
0.953125	0.125000	0.000000	0.100000	0.100000	3.200000	0.039424	
0.961539	0.125000	-0.000000	0.100000	0.100000	3.200000	0.039424	
0.967284	0.125000	0.000000	0.100000	0.100000	3.200000	0.039424	
0.970216	0.125000	0.000000	0.100000	0.100000	3.200000	0.039424	
0.975961	0.125000	0.000000	0.100000	0.100000	3.200000	0.039424	
0.984375	0.125000	0.000000	0.100000	0.100000	3.200000	0.039424	
0.992789	0.125000	0.000000	0.100000	0.100000	3.200000	0.039424	
0.998534	0.125000	0.000000	0.100000	0.100000	3.200000	0.039424	
