TITLE = "DG1DBEX64-P3RK4w10000iv80"
VARIABLES = "x" "Density" "Velocity in x" "Energy" "Pressure" "Temperature" "Fugacity"
ZONE T = "Final Time 0.10"
I = 256, J = 1, K = 1, F = POINT

0.001085	1.289607	0.000000	1.129824	1.129824	3.961481	0.288290	
0.005156	1.289607	0.000000	1.129824	1.129824	3.961481	0.288290	
0.010469	1.289607	-0.000000	1.129824	1.129824	3.961481	0.288290	
0.014540	1.289607	-0.000000	1.129824	1.129824	3.961481	0.288290	
0.016710	1.289607	0.000000	1.129824	1.129824	3.961481	0.288290	
0.020781	1.289607	0.000000	1.129824	1.129824	3.961481	0.288290	
0.026094	1.289607	-0.000000	1.129824	1.129824	3.961481	0.288290	
0.030165	1.289607	0.000000	1.129824	1.129824	3.961481	0.288290	
0.032335	1.289607	0.000000	1.129824	1.129824	3.961481	0.288290	
0.036406	1.289607	-0.000000	1.129824	1.129824	3.961481	0.288290	
0.041719	1.289607	-0.000000	1.129824	1.129824	3.961481	0.288290	
0.045790	1.289607	0.000000	1.129824	1.129824	3.961481	0.288290	
0.047960	1.289607	0.000000	1.129824	1.129824	3.961481	0.288290	
0.052031	1.289607	-0.000000	1.129824	1.129824	3.961481	0.288290	
0.057344	1.289607	-0.000000	1.129824	1.129824	3.961481	0.288290	
0.061415	1.289607	0.000000	1.129824	1.129824	3.961481	0.288290	
0.063585	1.289607	0.000000	1.129824	1.129824	3.961481	0.288290	
0.067656	1.289607	-0.000000	1.129824	1.129824	3.961481	0.288290	
0.072969	1.289607	0.000000	1.129824	1.129824	3.961481	0.288290	
0.077040	1.289607	0.000000	1.129824	1.129824	3.961481	0.288290	
0.079210	1.289607	-0.000000	1.129824	1.129824	3.961481	0.288290	
0.083281	1.289607	-0.000000	1.129824	1.129824	3.961482	0.288290	
0.088594	1.289607	0.000000	1.129824	1.129824	3.961481	0.288290	
0.092665	1.289606	0.000000	1.129824	1.129824	3.961481	0.288290	
0.094835	1.289607	-0.000000	1.129824	1.129824	3.961482	0.288290	
0.098906	1.289607	-0.000000	1.129824	1.129824	3.961482	0.288290	
0.104219	1.289606	0.000000	1.129824	1.129824	3.961480	0.288290	
0.108290	1.289606	0.000000	1.129824	1.129824	3.961480	0.288290	
0.110460	1.289607	-0.000001	1.129825	1.129825	3.961483	0.288290	
0.114531	1.289607	-0.000001	1.129825	1.129825	3.961483	0.288290	
0.119844	1.289606	0.000001	1.129823	1.129823	3.961478	0.288290	
0.123915	1.289606	0.000001	1.129823	1.129823	3.961479	0.288290	
0.126085	1.289608	-0.000002	1.129827	1.129827	3.961487	0.288290	
0.130156	1.289607	-0.000001	1.129826	1.129826	3.961486	0.288290	
0.135469	1.289605	0.000003	1.129820	1.129820	3.961471	0.288290	
0.139540	1.289605	0.000002	1.129821	1.129821	3.961473	0.288290	
0.141710	1.289609	-0.000005	1.129831	1.129831	3.961497	0.288290	
0.145781	1.289609	-0.000005	1.129831	1.129831	3.961497	0.288290	
0.151094	1.289602	0.000008	1.129813	1.129813	3.961455	0.288290	
0.155165	1.289602	0.000009	1.129811	1.129811	3.961451	0.288290	
0.157335	1.289612	-0.000010	1.129839	1.129839	3.961516	0.288290	
0.161406	1.289615	-0.000015	1.129846	1.129846	3.961534	0.288290	
0.166719	1.289597	0.000017	1.129800	1.129800	3.961424	0.288290	
0.170790	1.289588	0.000033	1.129775	1.129775	3.961364	0.288290	
0.172960	1.289613	-0.000011	1.129841	1.129841	3.961521	0.288290	
0.177031	1.289633	-0.000047	1.129893	1.129893	3.961642	0.288290	
0.182344	1.289597	0.000018	1.129798	1.129798	3.961422	0.288290	
0.186415	1.289543	0.000112	1.129659	1.129659	3.961090	0.288290	
0.188585	1.289585	0.000039	1.129768	1.129768	3.961351	0.288290	
0.192656	1.289668	-0.000110	1.129987	1.129987	3.961862	0.288290	
0.197969	1.289647	-0.000071	1.129929	1.129929	3.961731	0.288290	
0.202040	1.289458	0.000261	1.129439	1.129439	3.960571	0.288290	
0.204210	1.289446	0.000287	1.129402	1.129402	3.960493	0.288290	
0.208281	1.289654	-0.000084	1.129948	1.129948	3.961770	0.288290	
0.213594	1.289872	-0.000471	1.130519	1.130519	3.963115	0.288290	
0.217665	1.289550	0.000102	1.129673	1.129673	3.961131	0.288290	
0.219835	1.289208	0.000708	1.128781	1.128780	3.959032	0.288290	
0.223906	1.289246	0.000640	1.128880	1.128880	3.959267	0.288290	
0.229219	1.290085	-0.000853	1.131086	1.131086	3.964424	0.288290	
0.233290	1.290586	-0.001731	1.132380	1.132378	3.967504	0.288290	
0.235460	1.290054	-0.000802	1.131007	1.131006	3.964233	0.288290	
0.239531	1.288815	0.001411	1.127744	1.127743	3.956619	0.288290	
0.244844	1.288320	0.002275	1.126471	1.126467	3.953584	0.288290	
0.248915	1.290133	-0.000919	1.131192	1.131192	3.964714	0.288290	
0.251085	1.291272	-0.002968	1.134217	1.134211	3.971722	0.288290	
0.255156	1.291549	-0.003446	1.134922	1.134914	3.973423	0.288290	
0.260469	1.287257	0.004186	1.123646	1.123635	3.947059	0.288290	
0.264540	1.280031	0.017014	1.105039	1.104853	3.902868	0.288290	
0.266710	1.275572	0.024973	1.093708	1.093311	3.875728	0.288290	
0.270781	1.266225	0.041563	1.070574	1.069480	3.819134	0.288290	
0.276094	1.253230	0.064671	1.039507	1.036887	3.741146	0.288290	
0.280165	1.243118	0.082657	1.016234	1.011988	3.681018	0.288290	
0.282335	1.237627	0.092415	1.003930	0.998645	3.648570	0.288290	
0.286406	1.227281	0.110804	0.981337	0.973803	3.587824	0.288290	
0.291719	1.213619	0.135091	0.952719	0.941645	3.508390	0.288290	
0.295790	1.203058	0.153872	0.931517	0.917275	3.447595	0.288290	
0.297960	1.197400	0.163934	0.920483	0.904394	3.415243	0.288290	
0.302031	1.186743	0.182876	0.900304	0.880460	3.354719	0.288290	
0.307344	1.172775	0.207707	0.875035	0.849737	3.276218	0.288290	
0.311415	1.162033	0.226810	0.856489	0.826600	3.216475	0.288290	
0.313585	1.156295	0.237014	0.846894	0.814416	3.184790	0.288290	
0.317656	1.145505	0.256192	0.829419	0.791827	3.125624	0.288290	
0.322969	1.131386	0.281290	0.807669	0.762909	3.049052	0.288290	
0.327040	1.120537	0.300581	0.791792	0.741172	2.990858	0.288290	
0.329210	1.114746	0.310880	0.783608	0.729740	2.960024	0.288290	
0.333281	1.103859	0.330232	0.768756	0.708567	2.902487	0.288290	
0.338594	1.089623	0.355542	0.750373	0.681504	2.828104	0.288290	
0.342665	1.078689	0.374984	0.737032	0.661193	2.771630	0.288290	
0.344835	1.072855	0.385360	0.730184	0.650523	2.741733	0.288290	
0.348906	1.061887	0.404850	0.717800	0.630776	2.685963	0.288290	
0.354219	1.047554	0.430334	0.702574	0.605577	2.613943	0.288290	
0.358290	1.036595	0.449884	0.691590	0.586689	2.559193	0.288305	
0.360460	1.030679	0.460346	0.685986	0.576776	2.530406	0.288290	
0.364531	1.019624	0.479985	0.675873	0.558420	2.476413	0.288290	
0.369844	1.005203	0.505633	0.663556	0.535059	2.406861	0.288290	
0.373915	0.994251	0.525284	0.654716	0.517547	2.353750	0.288335	
0.376085	0.988212	0.535854	0.650247	0.508369	2.326178	0.288290	
0.380156	0.977044	0.555687	0.642194	0.491344	2.273902	0.288290	
0.385469	0.962540	0.581478	0.632508	0.469782	2.206892	0.288290	
0.389540	0.951584	0.601237	0.625603	0.453611	2.155492	0.288365	
0.391710	0.945611	0.611819	0.622147	0.445166	2.128803	0.288350	
0.395781	0.934189	0.631885	0.615981	0.429480	2.078799	0.288290	
0.401094	0.919630	0.657819	0.608631	0.409657	2.014238	0.288305	
0.405165	0.908716	0.677540	0.603491	0.394914	1.965133	0.288395	
0.407335	0.902759	0.688141	0.600928	0.387182	1.939452	0.288395	
0.411406	0.891228	0.708268	0.596449	0.372909	1.891998	0.288290	
0.416719	0.876880	0.734007	0.591161	0.354944	1.830341	0.288365	
0.420790	0.865985	0.753579	0.587565	0.341677	1.784187	0.288426	
0.422960	0.860158	0.764066	0.585769	0.334690	1.759547	0.288471	
0.427031	0.848844	0.783951	0.582714	0.321874	1.714713	0.288395	
0.432344	0.834424	0.809641	0.579161	0.305670	1.656505	0.288426	
0.436415	0.823786	0.828652	0.576868	0.294036	1.614104	0.288456	
0.438585	0.818334	0.838627	0.575698	0.287933	1.591105	0.288577	
0.442656	0.809333	0.854564	0.574188	0.278668	1.557131	0.288516	
0.447969	0.803879	0.864024	0.573235	0.273172	1.536625	0.288486	
0.452040	0.806825	0.859066	0.573716	0.275999	1.547080	0.288546	
0.454210	0.808402	0.856428	0.573927	0.277458	1.552094	0.288622	
0.458281	0.809517	0.854590	0.574069	0.278464	1.555754	0.288667	
0.463594	0.808822	0.855539	0.573994	0.277986	1.554331	0.288577	
0.467665	0.808872	0.855319	0.574035	0.278162	1.555147	0.288531	
0.469835	0.809353	0.854489	0.574135	0.278659	1.556999	0.288531	
0.473906	0.810368	0.853450	0.574130	0.279003	1.557145	0.288803	
0.479219	0.810309	0.853300	0.574196	0.279195	1.558379	0.288697	
0.483290	0.809846	0.853691	0.574190	0.279087	1.558479	0.288562	
0.485460	0.810300	0.853078	0.574214	0.279370	1.559180	0.288637	
0.489531	0.811058	0.852081	0.574255	0.279824	1.560427	0.288758	
0.494844	0.810472	0.852376	0.574337	0.279914	1.561935	0.288486	
0.498915	0.809095	0.853944	0.574325	0.279321	1.561017	0.288169	
0.501085	0.808937	0.854210	0.574320	0.279190	1.560409	0.288169	
0.505156	0.809941	0.852788	0.574410	0.279896	1.562609	0.288290	
0.510469	0.809511	0.852715	0.574533	0.280226	1.565139	0.287988	
0.514540	0.807889	0.854965	0.574314	0.279045	1.561386	0.287806	
0.516710	0.807769	0.855150	0.574263	0.278910	1.560922	0.287806	
0.520781	0.807754	0.854688	0.574277	0.279248	1.562754	0.287670	
0.526094	0.807280	0.854467	0.574322	0.279619	1.565538	0.287338	
0.530165	0.806315	0.854959	0.574340	0.279650	1.567265	0.286945	
0.532335	0.807064	0.853533	0.574515	0.280535	1.570600	0.286915	
0.536406	0.807217	0.853245	0.574636	0.280798	1.571831	0.286870	
0.541719	0.804473	0.857408	0.574473	0.278769	1.565579	0.286553	
0.545790	0.803273	0.858743	0.574287	0.278104	1.563860	0.286341	
0.547960	0.805307	0.855420	0.574388	0.279749	1.569251	0.286522	
0.552031	0.805453	0.854789	0.574245	0.279987	1.570453	0.286477	
0.557344	0.802428	0.858069	0.573809	0.278403	1.566892	0.285888	
0.561415	0.802483	0.856075	0.573937	0.279881	1.574739	0.285344	
0.563585	0.803066	0.854800	0.574176	0.280783	1.578518	0.285239	
0.567656	0.803342	0.857986	0.574552	0.278866	1.567925	0.286069	
0.572969	0.819132	0.858754	0.580345	0.278307	1.539688	0.292519	
0.577040	0.808529	0.855432	0.576342	0.280516	1.568066	0.287504	
0.579210	0.780506	0.860332	0.567103	0.278249	1.602876	0.277233	
0.583281	0.653804	0.865491	0.521246	0.276373	1.853874	0.226345	
0.588594	0.421412	0.869872	0.438345	0.278909	2.781359	0.129328	
0.592665	0.277975	0.870431	0.385654	0.280350	4.143590	0.073033	
0.594835	0.235157	0.866101	0.368280	0.280081	4.866785	0.057671	
0.598906	0.194389	0.869713	0.351050	0.277532	5.801089	0.044107	
0.604219	0.178173	0.864817	0.343544	0.276915	6.305128	0.038927	
0.608290	0.176232	0.862743	0.343006	0.277419	6.385690	0.038277	
0.610460	0.175664	0.859129	0.343458	0.278629	6.432959	0.038020	
0.614531	0.176366	0.851821	0.344415	0.280430	6.447548	0.038126	
0.619844	0.176527	0.851815	0.344255	0.280212	6.438346	0.038186	
0.623915	0.175285	0.862429	0.342864	0.277676	6.426261	0.037960	
0.626085	0.174754	0.866171	0.342182	0.276627	6.418783	0.037869	
0.630156	0.175670	0.863545	0.341565	0.276066	6.370831	0.038202	
0.635469	0.176088	0.857516	0.342613	0.277871	6.401175	0.038202	
0.639540	0.175589	0.854450	0.343666	0.279568	6.459097	0.037930	
0.641710	0.175592	0.852033	0.343941	0.280204	6.469934	0.037899	
0.645781	0.176612	0.848116	0.343341	0.279823	6.423628	0.038247	
0.651094	0.176239	0.856206	0.342499	0.277900	6.396582	0.038247	
0.655165	0.174940	0.867896	0.341936	0.276050	6.400989	0.037960	
0.657335	0.174703	0.869121	0.342148	0.276165	6.409825	0.037884	
0.661406	0.176007	0.860563	0.342822	0.277649	6.395251	0.038202	
0.666719	0.176734	0.850882	0.344687	0.280709	6.443024	0.038217	
0.670790	0.175970	0.853786	0.345072	0.280935	6.476565	0.037960	
0.672960	0.175659	0.856729	0.344739	0.280274	6.469531	0.037915	
0.677031	0.176284	0.857993	0.343163	0.278277	6.399825	0.038247	
0.682344	0.176028	0.862488	0.341940	0.276467	6.370912	0.038277	
0.686415	0.175175	0.865533	0.342085	0.276469	6.402465	0.038005	
0.688585	0.175080	0.863424	0.342752	0.277491	6.426969	0.037915	
0.692656	0.176472	0.852144	0.343691	0.279619	6.423890	0.038217	
0.697969	0.176819	0.847566	0.344381	0.280871	6.443923	0.038232	
0.702040	0.175426	0.860024	0.343230	0.278353	6.436584	0.037960	
0.704210	0.174957	0.865439	0.342674	0.277154	6.423223	0.037899	
0.708281	0.175828	0.864433	0.341827	0.276133	6.366781	0.038247	
0.713594	0.175985	0.859385	0.342134	0.277147	6.388495	0.038217	
0.717665	0.175377	0.857190	0.342775	0.278344	6.438206	0.037945	
0.719835	0.175471	0.853690	0.343328	0.279388	6.455687	0.037915	
0.723906	0.176703	0.847463	0.343479	0.280026	6.425046	0.038262	
0.729219	0.176298	0.854169	0.342477	0.278163	6.400815	0.038247	
0.733290	0.174741	0.867742	0.340912	0.275124	6.386386	0.037960	
0.735460	0.174649	0.867125	0.340917	0.275257	6.390148	0.037930	
0.739531	0.176067	0.857718	0.341346	0.276582	6.368565	0.038292	
0.744844	0.176623	0.850877	0.343406	0.279469	6.419205	0.038262	
0.748915	0.175837	0.854175	0.344465	0.280318	6.466756	0.037960	
0.751085	0.175794	0.853771	0.344975	0.280905	6.479473	0.037915	
0.755156	0.176696	0.855620	0.343777	0.279099	6.403741	0.038322	
0.760469	0.175845	0.867606	0.342199	0.276016	6.367955	0.038247	
0.764540	0.174853	0.871157	0.342453	0.276104	6.405041	0.037930	
0.766710	0.175240	0.864371	0.343537	0.278073	6.433446	0.037930	
0.770781	0.176935	0.852953	0.344364	0.280001	6.415892	0.038337	
0.776094	0.176952	0.850509	0.345019	0.281019	6.443210	0.038262	
0.780165	0.175524	0.856309	0.344331	0.279979	6.470172	0.037884	
0.782335	0.175204	0.859137	0.343271	0.278611	6.446608	0.037884	
0.786406	0.176128	0.863923	0.340793	0.275066	6.331826	0.038413	
0.791719	0.174937	0.862901	0.340103	0.274975	6.374628	0.038035	
0.795790	0.175434	0.844705	0.342197	0.279609	6.463524	0.037884	
0.797960	0.176270	0.844863	0.341805	0.278895	6.414424	0.038202	
0.802031	0.177069	0.852381	0.343171	0.278846	6.389321	0.038443	
0.807344	0.175113	0.858614	0.345111	0.280562	6.498402	0.037718	
0.811415	0.177117	0.856271	0.344380	0.279449	6.397922	0.038428	
0.813585	0.178352	0.864209	0.339650	0.273049	6.213138	0.039244	
0.817656	0.173072	0.872824	0.340129	0.274204	6.421548	0.037507	
0.822969	0.178696	0.885834	0.361711	0.291600	6.619055	0.038126	
0.827040	0.176292	0.733943	0.304420	0.256938	5.914833	0.039742	
0.829210	0.143992	0.344457	0.176447	0.167905	4.725846	0.036404	
0.833281	0.119272	-0.149119	0.079397	0.078070	2.657282	0.040105	
0.838594	0.134649	0.085464	0.115712	0.115221	3.472208	0.039621	
0.842665	0.131363	0.061320	0.110122	0.109875	3.392025	0.039123	
0.844835	0.122871	-0.116945	0.086224	0.085384	2.820066	0.040105	
0.848906	0.129842	0.017682	0.104347	0.104327	3.259301	0.039440	
0.854219	0.129224	0.008156	0.102641	0.102637	3.223276	0.039470	
0.858290	0.127593	-0.021783	0.098733	0.098702	3.139941	0.039485	
0.860460	0.129181	0.006676	0.102192	0.102189	3.211027	0.039531	
0.864531	0.129113	0.004950	0.102238	0.102236	3.212675	0.039501	
0.869844	0.128618	-0.003685	0.101060	0.101059	3.188082	0.039501	
0.873915	0.128922	0.001602	0.101766	0.101766	3.203171	0.039501	
0.876085	0.129014	0.003140	0.101997	0.101996	3.207755	0.039501	
0.880156	0.128739	-0.001507	0.101345	0.101345	3.194084	0.039501	
0.885469	0.128858	0.000481	0.101623	0.101623	3.199985	0.039501	
0.889540	0.128867	0.000646	0.101645	0.101645	3.200476	0.039501	
0.891710	0.128776	-0.000874	0.101434	0.101434	3.195922	0.039501	
0.895781	0.128834	0.000077	0.101566	0.101566	3.198794	0.039501	
0.901094	0.128834	0.000085	0.101567	0.101567	3.198794	0.039501	
0.905165	0.128816	-0.000207	0.101527	0.101527	3.197928	0.039501	
0.907335	0.128830	0.000024	0.101559	0.101559	3.198635	0.039501	
0.911406	0.128832	0.000057	0.101563	0.101563	3.198715	0.039501	
0.916719	0.128826	-0.000040	0.101550	0.101550	3.198432	0.039501	
0.920790	0.128829	0.000011	0.101557	0.101557	3.198584	0.039501	
0.922960	0.128831	0.000037	0.101560	0.101560	3.198657	0.039501	
0.927031	0.128828	-0.000015	0.101553	0.101553	3.198505	0.039501	
0.932344	0.128829	0.000004	0.101556	0.101556	3.198562	0.039501	
0.936415	0.128829	0.000007	0.101556	0.101556	3.198572	0.039501	
0.938585	0.128828	-0.000008	0.101554	0.101554	3.198524	0.039501	
0.942656	0.128829	0.000000	0.101555	0.101555	3.198551	0.039501	
0.947969	0.128829	0.000001	0.101556	0.101556	3.198553	0.039501	
0.952040	0.128829	-0.000002	0.101555	0.101555	3.198543	0.039501	
0.954210	0.128829	-0.000000	0.101555	0.101555	3.198550	0.039501	
0.958281	0.128829	0.000001	0.101555	0.101555	3.198551	0.039501	
0.963594	0.128829	-0.000000	0.101555	0.101555	3.198548	0.039501	
0.967665	0.128829	0.000000	0.101555	0.101555	3.198550	0.039501	
0.969835	0.128829	0.000000	0.101555	0.101555	3.198551	0.039501	
0.973906	0.128829	-0.000000	0.101555	0.101555	3.198549	0.039501	
0.979219	0.128829	0.000000	0.101555	0.101555	3.198550	0.039501	
0.983290	0.128829	0.000000	0.101555	0.101555	3.198550	0.039501	
0.985460	0.128829	-0.000000	0.101555	0.101555	3.198549	0.039501	
0.989531	0.128829	-0.000000	0.101555	0.101555	3.198550	0.039501	
0.994844	0.128829	0.000000	0.101555	0.101555	3.198550	0.039501	
0.998915	0.128829	-0.000000	0.101555	0.101555	3.198549	0.039501	
