TITLE = "DG1DMBX32-P4RK4w10000iv20"
VARIABLES = "x" "Density" "Velocity in x" "Energy" "Pressure" "Temperature" "Fugacity"
ZONE T = "Final Time 0.10"
I = 160, J = 1, K = 1, F = POINT

0.001466	0.992859	-0.000000	0.843964	0.843964	3.400137	0.303784	
0.007211	0.992859	-0.000000	0.843964	0.843964	3.400136	0.303784	
0.015625	0.992859	0.000000	0.843963	0.843963	3.400135	0.303784	
0.024039	0.992859	-0.000000	0.843964	0.843964	3.400137	0.303784	
0.029784	0.992859	-0.000000	0.843964	0.843964	3.400137	0.303784	
0.032716	0.992859	0.000001	0.843963	0.843963	3.400133	0.303784	
0.038461	0.992859	0.000001	0.843963	0.843963	3.400134	0.303784	
0.046875	0.992859	-0.000001	0.843965	0.843965	3.400139	0.303784	
0.055289	0.992859	0.000001	0.843963	0.843963	3.400133	0.303784	
0.061034	0.992857	0.000003	0.843961	0.843961	3.400127	0.303784	
0.063966	0.992859	-0.000001	0.843965	0.843965	3.400139	0.303784	
0.069711	0.992860	-0.000003	0.843967	0.843967	3.400145	0.303784	
0.078125	0.992858	0.000003	0.843960	0.843960	3.400127	0.303784	
0.086539	0.992858	0.000002	0.843962	0.843962	3.400132	0.303784	
0.092284	0.992864	-0.000012	0.843977	0.843977	3.400171	0.303784	
0.095216	0.992862	-0.000008	0.843971	0.843971	3.400156	0.303784	
0.100961	0.992855	0.000010	0.843952	0.843952	3.400105	0.303784	
0.109375	0.992858	0.000001	0.843962	0.843962	3.400133	0.303784	
0.117789	0.992869	-0.000023	0.843989	0.843989	3.400204	0.303784	
0.123534	0.992852	0.000019	0.843943	0.843943	3.400077	0.303784	
0.126466	0.992839	0.000047	0.843912	0.843912	3.399996	0.303784	
0.132211	0.992857	0.000001	0.843961	0.843961	3.400132	0.303783	
0.140625	0.992880	-0.000047	0.844019	0.844019	3.400286	0.303784	
0.149039	0.992833	0.000059	0.843892	0.843892	3.399936	0.303785	
0.154784	0.992812	0.000094	0.843859	0.843859	3.399872	0.303781	
0.157716	0.992876	-0.000031	0.844006	0.844006	3.400248	0.303784	
0.163461	0.992919	-0.000137	0.844120	0.844120	3.400559	0.303783	
0.171875	0.992827	0.000075	0.843871	0.843871	3.399871	0.303786	
0.180289	0.992774	0.000195	0.843761	0.843761	3.399609	0.303781	
0.186034	0.992983	-0.000288	0.844284	0.844284	3.401001	0.303783	
0.188966	0.993056	-0.000475	0.844479	0.844479	3.401536	0.303782	
0.194711	0.992885	-0.000035	0.844010	0.844010	3.400232	0.303787	
0.203125	0.992611	0.000555	0.843323	0.843323	3.398401	0.303785	
0.211539	0.992990	-0.000319	0.844363	0.844363	3.401297	0.303772	
0.217284	0.993428	-0.001215	0.845332	0.845331	3.403697	0.303799	
0.220216	0.993208	-0.000858	0.844870	0.844870	3.402587	0.303781	
0.225961	0.992518	0.000817	0.843034	0.843034	3.397556	0.303795	
0.234375	0.992335	0.001164	0.842663	0.842662	3.396685	0.303778	
0.242789	0.993706	-0.001989	0.846246	0.846245	3.406417	0.303763	
0.248534	0.994044	-0.002504	0.846770	0.846767	3.407361	0.303824	
0.251466	0.993076	-0.000502	0.844432	0.844432	3.401277	0.303799	
0.257211	0.989424	0.007971	0.834921	0.834890	3.375256	0.303846	
0.265625	0.979710	0.029952	0.811197	0.810757	3.310194	0.303806	
0.274039	0.966540	0.059702	0.780867	0.779145	3.224471	0.303680	
0.279784	0.956596	0.082114	0.759172	0.755947	3.160990	0.303558	
0.282716	0.951163	0.094192	0.747879	0.743659	3.127369	0.303452	
0.288461	0.940374	0.118485	0.726007	0.719406	3.060085	0.303291	
0.296875	0.923887	0.155466	0.694813	0.683648	2.959878	0.302975	
0.305289	0.906919	0.193644	0.665136	0.648132	2.858611	0.302633	
0.311034	0.895119	0.220197	0.645910	0.624209	2.789389	0.302379	
0.313966	0.889051	0.233849	0.636451	0.612142	2.754134	0.302245	
0.319711	0.877085	0.260784	0.618625	0.588800	2.685259	0.301977	
0.328125	0.859430	0.300641	0.594319	0.555479	2.585337	0.301562	
0.336539	0.841655	0.340893	0.572109	0.523206	2.486559	0.301134	
0.342284	0.829442	0.368578	0.558095	0.501755	2.419722	0.300835	
0.345216	0.823189	0.382765	0.551293	0.490991	2.385798	0.300682	
0.350961	0.810894	0.410706	0.538651	0.470261	2.319716	0.300380	
0.359375	0.792780	0.451996	0.521761	0.440778	2.223964	0.299926	
0.367789	0.774531	0.493721	0.506715	0.412315	2.129368	0.299460	
0.373534	0.761991	0.522440	0.497451	0.393461	2.065434	0.299137	
0.376466	0.755573	0.537154	0.493030	0.384025	2.033030	0.298971	
0.382211	0.742970	0.566080	0.484959	0.365918	1.970030	0.298648	
0.390625	0.724525	0.608617	0.474601	0.340413	1.879374	0.298176	
0.399039	0.706148	0.651142	0.465886	0.316188	1.791057	0.297691	
0.404784	0.693685	0.680018	0.460806	0.300417	1.732300	0.297355	
0.407716	0.687353	0.694680	0.458465	0.292614	1.702844	0.297179	
0.413461	0.675126	0.723055	0.454397	0.277916	1.646604	0.296835	
0.421875	0.657721	0.763636	0.449629	0.257857	1.568185	0.296325	
0.430289	0.641347	0.802009	0.446150	0.239887	1.496146	0.295822	
0.436034	0.631382	0.825375	0.444511	0.229449	1.453632	0.295454	
0.438966	0.627124	0.835321	0.443960	0.225168	1.436196	0.295238	
0.444711	0.622538	0.846341	0.443674	0.220715	1.418161	0.294936	
0.453125	0.621285	0.848998	0.444368	0.220457	1.419364	0.294218	
0.461539	0.621644	0.848727	0.445351	0.221454	1.424956	0.293810	
0.467284	0.619792	0.853112	0.445649	0.220106	1.420517	0.293392	
0.470216	0.619061	0.854856	0.445835	0.219637	1.419160	0.293186	
0.475961	0.618043	0.857136	0.446242	0.219210	1.418734	0.292748	
0.484375	0.617522	0.858505	0.447140	0.219574	1.422289	0.292135	
0.492789	0.617235	0.859772	0.448107	0.219974	1.425544	0.291666	
0.498534	0.615959	0.862671	0.448553	0.219354	1.424468	0.291173	
0.501466	0.615473	0.863574	0.448792	0.219294	1.425206	0.290868	
0.507211	0.614924	0.864500	0.449333	0.219548	1.428131	0.290310	
0.515625	0.614102	0.866480	0.450227	0.219697	1.431015	0.289630	
0.524039	0.612997	0.869060	0.451128	0.219640	1.433224	0.288886	
0.529784	0.612634	0.869531	0.451772	0.220171	1.437540	0.288281	
0.532716	0.612273	0.869612	0.452029	0.220521	1.440670	0.287798	
0.538461	0.612116	0.870786	0.452752	0.220678	1.442066	0.287585	
0.546875	0.612656	0.872892	0.454337	0.220933	1.442463	0.287799	
0.555289	0.608270	0.874504	0.454010	0.221421	1.456067	0.284401	
0.561034	0.605049	0.875394	0.453652	0.221823	1.466479	0.281889	
0.563966	0.605112	0.874831	0.453945	0.222390	1.470073	0.281573	
0.569711	0.615161	0.876863	0.458769	0.222274	1.445308	0.288691	
0.578125	0.611266	0.879810	0.459186	0.222606	1.456690	0.285740	
0.586539	0.501760	0.883252	0.419371	0.223651	1.782931	0.212009	
0.592284	0.384563	0.887473	0.375078	0.223635	2.326117	0.142258	
0.595216	0.330671	0.887415	0.354218	0.224015	2.709825	0.113331	
0.600961	0.277119	0.881440	0.330784	0.223132	3.220733	0.087119	
0.609375	0.259865	0.862497	0.318248	0.221591	3.410869	0.079385	
0.617789	0.248446	0.843814	0.307034	0.218585	3.519229	0.074719	
0.623534	0.235868	0.825848	0.296432	0.215998	3.663033	0.069530	
0.626466	0.231676	0.813566	0.291229	0.214557	3.704438	0.067912	
0.632211	0.223439	0.790073	0.280900	0.211163	3.780238	0.064837	
0.640625	0.210192	0.750214	0.264262	0.205111	3.903306	0.060024	
0.649039	0.198197	0.704107	0.247391	0.198261	4.001298	0.055901	
0.654784	0.190983	0.670349	0.236258	0.193347	4.049526	0.053545	
0.657716	0.187274	0.653422	0.230650	0.190671	4.072546	0.052356	
0.663461	0.180987	0.618376	0.220309	0.185705	4.104263	0.050403	
0.671875	0.173081	0.568540	0.206521	0.178548	4.126349	0.048072	
0.680289	0.166197	0.521773	0.194259	0.171636	4.130904	0.046135	
0.686034	0.162334	0.490181	0.186981	0.167478	4.126755	0.045085	
0.688966	0.160747	0.474373	0.183593	0.165506	4.118432	0.044689	
0.694711	0.157582	0.447555	0.177204	0.161421	4.097463	0.043921	
0.703125	0.153213	0.410702	0.168841	0.155920	4.070674	0.042844	
0.711539	0.149979	0.374466	0.161957	0.151442	4.039008	0.042103	
0.717284	0.148233	0.353290	0.157600	0.148349	4.003131	0.041800	
0.720216	0.147164	0.344469	0.155249	0.146518	3.982450	0.041606	
0.725961	0.145353	0.324971	0.151938	0.144262	3.969978	0.041158	
0.734375	0.142888	0.293005	0.146327	0.140193	3.924555	0.040694	
0.742789	0.141264	0.274517	0.142028	0.136705	3.870922	0.040509	
0.748534	0.140678	0.259578	0.140745	0.136006	3.867142	0.040361	
0.751466	0.140361	0.255460	0.140743	0.136163	3.880346	0.040201	
0.757211	0.136190	0.203927	0.129560	0.126728	3.722085	0.039827	
0.765625	0.125631	0.014241	0.098742	0.098729	3.143458	0.039978	
0.774039	0.123533	-0.025355	0.093709	0.093669	3.033005	0.040019	
0.779784	0.126779	0.034872	0.101499	0.101421	3.199955	0.039985	
0.782716	0.126887	0.034767	0.101364	0.101287	3.192991	0.040063	
0.788461	0.124120	-0.012160	0.095378	0.095369	3.073438	0.039944	
0.796875	0.124733	-0.002803	0.096413	0.096412	3.091796	0.040022	
0.805289	0.125341	0.008948	0.098025	0.098020	3.128110	0.039983	
0.811034	0.124700	-0.003313	0.096460	0.096460	3.094138	0.039996	
0.813966	0.124324	-0.009347	0.095627	0.095621	3.076513	0.039990	
0.819711	0.124924	0.001161	0.096946	0.096946	3.104181	0.040003	
0.828125	0.124962	0.001858	0.097100	0.097100	3.108118	0.039990	
0.836539	0.124739	-0.002169	0.096547	0.096547	3.095958	0.039997	
0.842284	0.124837	-0.000204	0.096787	0.096787	3.101224	0.039995	
0.845216	0.124999	0.002383	0.097139	0.097139	3.108462	0.040000	
0.850961	0.124867	0.000148	0.096870	0.096870	3.103127	0.039992	
0.859375	0.124823	-0.000625	0.096744	0.096744	3.100192	0.039997	
0.867789	0.124889	0.000536	0.096906	0.096906	3.103751	0.039995	
0.873534	0.124876	0.000258	0.096874	0.096874	3.103033	0.039996	
0.876466	0.124823	-0.000586	0.096759	0.096759	3.100678	0.039994	
0.882211	0.124852	-0.000115	0.096814	0.096814	3.101727	0.039996	
0.890625	0.124869	0.000184	0.096860	0.096860	3.102778	0.039995	
0.899039	0.124852	-0.000125	0.096817	0.096817	3.101833	0.039995	
0.904784	0.124852	-0.000103	0.096819	0.096819	3.101875	0.039995	
0.907716	0.124867	0.000135	0.096851	0.096851	3.102537	0.039996	
0.913461	0.124861	0.000045	0.096841	0.096841	3.102362	0.039995	
0.921875	0.124856	-0.000050	0.096827	0.096827	3.102036	0.039995	
0.930289	0.124860	0.000029	0.096838	0.096838	3.102279	0.039995	
0.936034	0.124861	0.000033	0.096839	0.096839	3.102296	0.039995	
0.938966	0.124857	-0.000033	0.096830	0.096830	3.102114	0.039995	
0.944711	0.124858	-0.000013	0.096832	0.096832	3.102146	0.039995	
0.953125	0.124859	0.000013	0.096836	0.096836	3.102236	0.039995	
0.961539	0.124858	-0.000007	0.096833	0.096833	3.102174	0.039995	
0.967284	0.124858	-0.000009	0.096833	0.096833	3.102168	0.039995	
0.970216	0.124859	0.000009	0.096835	0.096835	3.102216	0.039995	
0.975961	0.124859	0.000003	0.096834	0.096834	3.102207	0.039995	
0.984375	0.124858	-0.000003	0.096833	0.096833	3.102185	0.039995	
0.992789	0.124859	0.000002	0.096834	0.096834	3.102200	0.039995	
0.998534	0.124859	0.000002	0.096834	0.096834	3.102202	0.039995	
