TITLE = "DG1DBEX16-P4RK4w1000iv80"
VARIABLES = "x" "Density" "Velocity in x" "Energy" "Pressure" "Temperature" "Fugacity"
ZONE T = "Final Time 0.10"
I = 80, J = 1, K = 1, F = POINT

0.002932	1.269534	-0.000011	1.122085	1.122085	3.987815	0.284030	
0.014423	1.269521	0.000012	1.122054	1.122054	3.987732	0.284030	
0.031250	1.269528	-0.000001	1.122072	1.122072	3.987773	0.284030	
0.048077	1.269542	-0.000026	1.122106	1.122106	3.987866	0.284030	
0.059568	1.269501	0.000047	1.122001	1.122001	3.987607	0.284030	
0.065432	1.269494	0.000058	1.121990	1.121990	3.987563	0.284030	
0.076923	1.269547	-0.000036	1.122124	1.122124	3.987898	0.284030	
0.093750	1.269546	-0.000032	1.122114	1.122114	3.987891	0.284030	
0.110577	1.269460	0.000119	1.121901	1.121901	3.987347	0.284030	
0.122068	1.269565	-0.000073	1.122183	1.122183	3.988010	0.284030	
0.127932	1.269662	-0.000237	1.122407	1.122407	3.988619	0.284030	
0.139423	1.269523	0.000012	1.122047	1.122047	3.987744	0.284030	
0.156250	1.269388	0.000247	1.121722	1.121722	3.986898	0.284030	
0.173077	1.269736	-0.000379	1.122623	1.122623	3.989082	0.284030	
0.184568	1.269798	-0.000465	1.122718	1.122718	3.989469	0.284030	
0.190432	1.269434	0.000172	1.121808	1.121808	3.987187	0.284030	
0.201923	1.269204	0.000575	1.121249	1.121249	3.985742	0.284030	
0.218750	1.269112	0.000803	1.120893	1.120892	3.985160	0.284030	
0.235577	1.266007	0.006942	1.111051	1.111020	3.959781	0.284196	
0.247068	1.258950	0.020504	1.090870	1.090605	3.909404	0.284378	
0.252932	1.253376	0.030892	1.075910	1.075312	3.871717	0.284468	
0.264423	1.238885	0.057631	1.038879	1.036822	3.777085	0.284634	
0.281250	1.210468	0.109656	0.972960	0.965683	3.600924	0.284785	
0.298077	1.175930	0.172429	0.902259	0.884777	3.396073	0.284861	
0.309568	1.150307	0.218844	0.855617	0.828071	3.249245	0.284876	
0.315432	1.136702	0.243397	0.832789	0.799118	3.173271	0.284861	
0.326923	1.109440	0.292737	0.790636	0.743100	3.023291	0.284846	
0.343750	1.067972	0.367423	0.735352	0.663264	2.803028	0.284785	
0.360577	1.025191	0.444533	0.688506	0.587213	2.585050	0.284695	
0.372068	0.995337	0.498387	0.661405	0.537790	2.438669	0.284604	
0.377932	0.979973	0.526104	0.649086	0.513465	2.364602	0.284574	
0.389423	0.949643	0.580764	0.627752	0.467601	2.222002	0.284498	
0.406250	0.905114	0.660834	0.603287	0.405654	2.022334	0.284287	
0.423077	0.862089	0.738046	0.586306	0.351511	1.839615	0.283985	
0.434568	0.835408	0.785784	0.578585	0.320670	1.731492	0.283728	
0.440432	0.823225	0.807359	0.575738	0.307437	1.684551	0.283517	
0.451923	0.805293	0.839080	0.572286	0.288801	1.617443	0.283139	
0.468750	0.793399	0.858354	0.570526	0.278249	1.580936	0.282369	
0.485577	0.793598	0.857873	0.570781	0.278759	1.583452	0.282248	
0.497068	0.792612	0.859846	0.570728	0.277726	1.579518	0.282248	
0.502932	0.792303	0.861255	0.570867	0.277017	1.576141	0.282399	
0.514423	0.789152	0.861075	0.570026	0.277468	1.583785	0.280979	
0.531250	0.786675	0.858695	0.568658	0.278627	1.594439	0.279544	
0.548077	0.791765	0.859713	0.570925	0.278326	1.584104	0.281689	
0.559568	0.769081	0.864500	0.565234	0.277844	1.620800	0.272807	
0.565432	0.737466	0.869256	0.555846	0.277229	1.675964	0.260301	
0.576923	0.600519	0.883145	0.511876	0.277690	2.007142	0.203824	
0.593750	0.364419	0.906568	0.429100	0.279348	3.191815	0.106324	
0.610577	0.230370	0.905166	0.373483	0.279109	4.947450	0.056101	
0.622068	0.199279	0.882157	0.356895	0.279356	5.702495	0.045558	
0.627932	0.188519	0.883203	0.352011	0.278485	5.998040	0.042129	
0.639423	0.180370	0.869016	0.346888	0.278782	6.269847	0.039501	
0.656250	0.176308	0.864977	0.344351	0.278396	6.401526	0.038247	
0.673077	0.175701	0.863193	0.344429	0.278972	6.440920	0.038005	
0.684568	0.175615	0.862462	0.344722	0.279407	6.450470	0.037960	
0.690432	0.175907	0.860717	0.345058	0.279899	6.450766	0.038020	
0.701923	0.176485	0.859618	0.345553	0.280347	6.440535	0.038171	
0.718750	0.175972	0.863229	0.344949	0.279384	6.439803	0.038066	
0.735577	0.175439	0.865969	0.343890	0.278109	6.426977	0.037990	
0.747068	0.175954	0.860224	0.344440	0.279339	6.438449	0.038066	
0.752932	0.176415	0.858150	0.343852	0.278894	6.409343	0.038247	
0.764423	0.176269	0.869878	0.344912	0.278221	6.403954	0.038232	
0.781250	0.174633	0.856495	0.342062	0.278009	6.457459	0.037733	
0.798077	0.177004	0.858805	0.346532	0.281258	6.446974	0.038262	
0.809568	0.177172	0.874912	0.345539	0.277729	6.360698	0.038549	
0.815432	0.178546	0.860654	0.353331	0.287204	6.522666	0.038368	
0.826923	0.156135	0.598575	0.252129	0.224158	5.816021	0.035604	
0.843750	0.128521	-0.007844	0.098170	0.098166	3.099768	0.040014	
0.860577	0.128430	-0.004280	0.101729	0.101728	3.214089	0.039289	
0.872068	0.134151	0.101886	0.118197	0.117500	3.554456	0.039032	
0.877932	0.126363	-0.047121	0.095519	0.095379	3.062824	0.039591	
0.889423	0.127597	-0.018272	0.098341	0.098320	3.125393	0.039576	
0.906250	0.129504	0.014390	0.103653	0.103640	3.247504	0.039410	
0.923077	0.128062	-0.009579	0.100055	0.100049	3.170560	0.039440	
0.934568	0.128769	-0.000435	0.101217	0.101217	3.190572	0.039531	
0.940432	0.129303	0.011898	0.103187	0.103178	3.237395	0.039410	
0.951923	0.128505	-0.002362	0.101100	0.101099	3.192550	0.039440	
0.968750	0.128705	0.000508	0.101472	0.101472	3.199971	0.039455	
0.985577	0.128716	0.000247	0.101546	0.101546	3.200530	0.039455	
0.997068	0.128670	-0.003520	0.101471	0.101470	3.200725	0.039440	
