TITLE = "DG1DBEX32-P4RK4w100iv80"
VARIABLES = "x" "Density" "Velocity in x" "Energy" "Pressure" "Temperature" "Fugacity"
ZONE T = "Final Time 0.10"
I = 160, J = 1, K = 1, F = POINT

0.001466	1.260913	0.000002	1.118797	1.118797	3.999537	0.282187	
0.007211	1.260912	0.000002	1.118796	1.118796	3.999536	0.282187	
0.015625	1.260912	0.000003	1.118794	1.118794	3.999534	0.282187	
0.024039	1.260911	0.000005	1.118791	1.118791	3.999530	0.282187	
0.029784	1.260911	0.000006	1.118788	1.118788	3.999527	0.282187	
0.032716	1.260911	0.000007	1.118786	1.118786	3.999525	0.282187	
0.038461	1.260910	0.000009	1.118781	1.118781	3.999520	0.282187	
0.046875	1.260908	0.000013	1.118772	1.118772	3.999510	0.282187	
0.055289	1.260906	0.000021	1.118756	1.118756	3.999493	0.282187	
0.061034	1.260902	0.000029	1.118740	1.118740	3.999471	0.282187	
0.063966	1.260902	0.000031	1.118735	1.118735	3.999469	0.282187	
0.069711	1.260896	0.000047	1.118699	1.118699	3.999429	0.282187	
0.078125	1.260877	0.000095	1.118603	1.118603	3.998765	0.282202	
0.086539	1.260855	0.000155	1.118483	1.118483	3.998629	0.282202	
0.092284	1.260837	0.000200	1.118385	1.118385	3.998513	0.282202	
0.095216	1.260823	0.000236	1.118315	1.118315	3.997878	0.282218	
0.100961	1.260793	0.000315	1.118154	1.118154	3.997689	0.282218	
0.109375	1.260731	0.000471	1.117838	1.117838	3.996753	0.282233	
0.117789	1.260641	0.000700	1.117388	1.117388	3.995641	0.282248	
0.123534	1.260557	0.000911	1.116974	1.116973	3.994564	0.282263	
0.126466	1.260505	0.001040	1.116719	1.116718	3.993692	0.282278	
0.132211	1.260382	0.001346	1.116127	1.116126	3.991822	0.282308	
0.140625	1.260135	0.001948	1.114973	1.114971	3.988631	0.282354	
0.149039	1.259784	0.002793	1.113378	1.113373	3.984242	0.282414	
0.154784	1.259466	0.003552	1.111968	1.111960	3.980063	0.282474	
0.157716	1.259273	0.004007	1.111127	1.111117	3.977763	0.282505	
0.163461	1.258827	0.005053	1.109212	1.109196	3.972782	0.282565	
0.171875	1.257974	0.007025	1.105659	1.105628	3.962552	0.282701	
0.180289	1.256826	0.009637	1.101040	1.100982	3.949955	0.282852	
0.186034	1.255835	0.011863	1.097170	1.097082	3.939445	0.282973	
0.188966	1.255255	0.013157	1.094947	1.094838	3.933135	0.283048	
0.194711	1.253955	0.016030	1.090062	1.089901	3.919664	0.283199	
0.203125	1.251610	0.021140	1.081548	1.081268	3.896551	0.283441	
0.211539	1.248665	0.027457	1.071281	1.070810	3.868778	0.283713	
0.217284	1.246263	0.032540	1.063202	1.062543	3.846604	0.283924	
0.220216	1.244906	0.035390	1.058738	1.057958	3.834072	0.284045	
0.225961	1.241972	0.041503	1.049310	1.048241	3.808278	0.284272	
0.234375	1.236980	0.051770	1.033889	1.032231	3.765986	0.284619	
0.242789	1.231106	0.063673	1.016600	1.014105	3.718220	0.284982	
0.248534	1.226562	0.072773	1.003777	1.000529	3.682854	0.285223	
0.251466	1.224072	0.077725	0.996933	0.993235	3.663460	0.285359	
0.257211	1.218850	0.088036	0.982974	0.978251	3.623948	0.285616	
0.265625	1.210377	0.104586	0.961350	0.954730	3.562188	0.285979	
0.274039	1.200912	0.122847	0.938537	0.929475	3.496312	0.286311	
0.279784	1.193879	0.136283	0.922414	0.911327	3.448509	0.286538	
0.282716	1.190114	0.143435	0.914052	0.901809	3.423567	0.286643	
0.288461	1.182394	0.158018	0.897457	0.882695	3.372934	0.286855	
0.296875	1.170286	0.180689	0.872828	0.853724	3.296665	0.287111	
0.305289	1.157252	0.204857	0.848066	0.823783	3.217145	0.287338	
0.311034	1.147837	0.222180	0.831223	0.802892	3.161613	0.287459	
0.313966	1.142879	0.231261	0.822684	0.792122	3.132677	0.287519	
0.319711	1.132869	0.249516	0.806110	0.770845	3.075562	0.287610	
0.328125	1.117531	0.277289	0.782352	0.739389	2.990837	0.287685	
0.336539	1.101441	0.306203	0.759407	0.707771	2.904555	0.287716	
0.342284	1.090054	0.326543	0.744312	0.686195	2.845569	0.287685	
0.345216	1.084124	0.337095	0.736807	0.675210	2.815450	0.287655	
0.350961	1.072284	0.358089	0.722523	0.653774	2.755772	0.287595	
0.359375	1.054459	0.389515	0.702697	0.622705	2.669211	0.287414	
0.367789	1.036123	0.421628	0.684274	0.592178	2.582735	0.287172	
0.373534	1.023350	0.443875	0.672546	0.571733	2.524533	0.286945	
0.376466	1.016761	0.455310	0.666836	0.561445	2.494815	0.286824	
0.382211	1.003731	0.477847	0.656194	0.541599	2.437504	0.286538	
0.390625	0.984422	0.511048	0.641941	0.513390	2.355388	0.286024	
0.399039	0.964938	0.544303	0.629280	0.486341	2.275623	0.285405	
0.404784	0.951586	0.566934	0.621540	0.468613	2.222971	0.284906	
0.407716	0.944771	0.578430	0.617869	0.459818	2.196586	0.284634	
0.413461	0.931444	0.600795	0.611214	0.443109	2.146353	0.284045	
0.421875	0.912075	0.632998	0.602715	0.419988	2.076519	0.283048	
0.430289	0.892998	0.664281	0.595618	0.398592	2.011515	0.281885	
0.436034	0.880206	0.684955	0.591522	0.385042	1.970622	0.280964	
0.438966	0.873771	0.695247	0.589652	0.378475	1.950686	0.280465	
0.444711	0.861366	0.714844	0.586390	0.366310	1.914199	0.279393	
0.453125	0.843742	0.742011	0.582490	0.350216	1.866683	0.277611	
0.461539	0.826805	0.767137	0.579489	0.336202	1.826720	0.275541	
0.467284	0.815628	0.783030	0.577867	0.327822	1.804243	0.273925	
0.470216	0.810038	0.790728	0.577152	0.323914	1.794022	0.273049	
0.475961	0.799269	0.805019	0.575935	0.316950	1.777400	0.271161	
0.484375	0.783776	0.824125	0.574484	0.308321	1.760393	0.267989	
0.492789	0.768271	0.841288	0.573266	0.301388	1.752293	0.264228	
0.498534	0.757417	0.852078	0.572470	0.297514	1.751895	0.261252	
0.501466	0.751718	0.857353	0.572051	0.295774	1.753480	0.259576	
0.507211	0.740085	0.867350	0.571164	0.292782	1.759967	0.255951	
0.515625	0.721503	0.881498	0.569579	0.289261	1.777998	0.249697	
0.524039	0.700369	0.895554	0.567435	0.286581	1.808031	0.242054	
0.529784	0.684082	0.905365	0.565509	0.285143	1.836430	0.235907	
0.532716	0.675106	0.910496	0.564347	0.284515	1.853751	0.232448	
0.538461	0.656110	0.920857	0.561652	0.283468	1.893603	0.225016	
0.546875	0.624812	0.936851	0.556536	0.282341	1.969265	0.212479	
0.555289	0.589477	0.953808	0.549785	0.281647	2.068271	0.198085	
0.561034	0.563312	0.965818	0.544137	0.281407	2.152159	0.187300	
0.563966	0.549440	0.972020	0.540916	0.281355	2.200428	0.181560	
0.569711	0.521503	0.984175	0.533951	0.281386	2.307017	0.169960	
0.578125	0.479642	1.001485	0.522268	0.281734	2.492675	0.152574	
0.586539	0.438089	1.017314	0.509094	0.282399	2.715577	0.135400	
0.592284	0.410668	1.026717	0.499453	0.283001	2.889525	0.124162	
0.595216	0.397140	1.030943	0.494392	0.283343	2.985393	0.118649	
0.600961	0.371756	1.037909	0.484300	0.284062	3.183715	0.108423	
0.609375	0.337726	1.044518	0.469403	0.285171	3.498993	0.094950	
0.617789	0.307831	1.046422	0.454784	0.286247	3.836078	0.083395	
0.623534	0.289870	1.044922	0.445160	0.286912	4.072334	0.076613	
0.626466	0.281458	1.043311	0.440401	0.287217	4.194793	0.073471	
0.632211	0.266403	1.038580	0.431418	0.287740	4.429344	0.067958	
0.640625	0.247554	1.028305	0.419168	0.288285	4.763242	0.061206	
0.649039	0.232113	1.014857	0.408075	0.288545	5.073697	0.055829	
0.654784	0.223286	1.004368	0.401178	0.288558	5.268245	0.052823	
0.657716	0.219260	0.998739	0.397866	0.288512	5.362715	0.051463	
0.663461	0.212216	0.987322	0.391764	0.288329	5.533117	0.049122	
0.671875	0.203669	0.970201	0.383721	0.287865	5.749651	0.046343	
0.680289	0.196874	0.953214	0.376630	0.287189	5.929354	0.044183	
0.686034	0.193057	0.941924	0.372261	0.286619	6.033206	0.042990	
0.688966	0.191328	0.936290	0.370160	0.286297	6.078844	0.042461	
0.694711	0.188315	0.925532	0.366268	0.285612	6.156740	0.041555	
0.703125	0.184657	0.910462	0.361012	0.284477	6.252313	0.040467	
0.711539	0.181704	0.896101	0.356141	0.283187	6.323033	0.039621	
0.717284	0.179998	0.886579	0.352949	0.282207	6.358575	0.039153	
0.720216	0.179207	0.881769	0.351341	0.281673	6.378464	0.038927	
0.725961	0.177780	0.872369	0.348196	0.280548	6.399270	0.038564	
0.734375	0.175921	0.858403	0.343504	0.278690	6.425548	0.038096	
0.742789	0.174240	0.843750	0.338547	0.276525	6.433719	0.037718	
0.748534	0.173143	0.833060	0.334903	0.274823	6.437490	0.037477	
0.751466	0.172589	0.827310	0.332935	0.273871	6.433600	0.037371	
0.757211	0.171499	0.815325	0.328825	0.271823	6.427039	0.037159	
0.765625	0.169844	0.795594	0.322046	0.268293	6.404786	0.036872	
0.774039	0.168050	0.772443	0.314111	0.263976	6.366282	0.036600	
0.779784	0.166706	0.754112	0.307867	0.260465	6.334450	0.036404	
0.782716	0.165974	0.743817	0.304381	0.258467	6.311125	0.036313	
0.788461	0.164430	0.721483	0.296879	0.254083	6.263585	0.036117	
0.796875	0.161868	0.682745	0.284082	0.246355	6.164850	0.035845	
0.805289	0.158882	0.635197	0.268770	0.236717	6.038229	0.035558	
0.811034	0.156568	0.596734	0.256709	0.228833	5.920308	0.035392	
0.813966	0.155298	0.574989	0.250024	0.224352	5.850187	0.035317	
0.819711	0.152644	0.528142	0.235931	0.214642	5.696892	0.035181	
0.828125	0.148401	0.449237	0.213122	0.198147	5.408345	0.035105	
0.836539	0.143961	0.360962	0.188898	0.179519	5.053834	0.035226	
0.842284	0.141012	0.298850	0.172621	0.166324	4.777130	0.035483	
0.845216	0.139592	0.267914	0.164735	0.159725	4.636765	0.035649	
0.850961	0.137060	0.210952	0.150576	0.147526	4.363202	0.036072	
0.859375	0.134129	0.141850	0.133982	0.132633	4.007869	0.036812	
0.867789	0.132108	0.092100	0.122397	0.121836	3.738417	0.037522	
0.873534	0.131167	0.068235	0.116929	0.116624	3.604339	0.037930	
0.876466	0.130789	0.058506	0.114717	0.114493	3.551535	0.038096	
0.882211	0.130209	0.043427	0.111301	0.111178	3.463392	0.038398	
0.890625	0.129637	0.028333	0.107891	0.107839	3.375454	0.038715	
0.899039	0.129280	0.018754	0.105728	0.105705	3.316825	0.038942	
0.904784	0.129114	0.014255	0.104710	0.104697	3.289908	0.039047	
0.907716	0.129047	0.012428	0.104295	0.104285	3.278674	0.039093	
0.913461	0.128942	0.009536	0.103638	0.103632	3.260355	0.039168	
0.921875	0.128833	0.006534	0.102952	0.102949	3.241996	0.039244	
0.930289	0.128761	0.004520	0.102488	0.102487	3.228142	0.039304	
0.936034	0.128726	0.003525	0.102260	0.102259	3.223827	0.039319	
0.938966	0.128711	0.003112	0.102163	0.102163	3.220540	0.039334	
0.944711	0.128688	0.002436	0.102006	0.102006	3.216828	0.039349	
0.953125	0.128663	0.001709	0.101835	0.101835	3.210487	0.039380	
0.961539	0.128645	0.001198	0.101714	0.101714	3.207071	0.039395	
0.967284	0.128636	0.000937	0.101654	0.101654	3.206625	0.039395	
0.970216	0.128632	0.000827	0.101625	0.101625	3.206428	0.039395	
0.975961	0.128625	0.000634	0.101580	0.101580	3.203570	0.039410	
0.984375	0.128620	0.000440	0.101539	0.101539	3.203297	0.039410	
0.992789	0.128614	0.000251	0.101497	0.101497	3.203004	0.039410	
0.998534	0.128610	0.000143	0.101472	0.101472	3.200285	0.039425	
