TITLE = "DG1DMBX64-P4RK4w10iv80"
VARIABLES = "x" "Density" "Velocity in x" "Energy" "Pressure" "Temperature" "Fugacity"
ZONE T = "Final Time 0.10"
I = 320, J = 1, K = 1, F = POINT

0.000733	0.999815	0.000915	0.997707	0.997706	3.991565	0.282340	
0.003606	0.999815	0.000911	0.997723	0.997722	3.991627	0.282338	
0.007813	0.999820	0.000883	0.997805	0.997805	3.991936	0.282329	
0.012019	0.999813	0.000917	0.997738	0.997738	3.991699	0.282335	
0.014892	0.999792	0.001014	0.997513	0.997512	3.990877	0.282358	
0.016358	0.999777	0.001087	0.997342	0.997342	3.990257	0.282376	
0.019231	0.999734	0.001286	0.996886	0.996885	3.988603	0.282422	
0.023438	0.999664	0.001601	0.996174	0.996173	3.986028	0.282494	
0.027644	0.999620	0.001798	0.995739	0.995738	3.984463	0.282537	
0.030517	0.999617	0.001811	0.995720	0.995719	3.984401	0.282538	
0.031983	0.999619	0.001799	0.995754	0.995752	3.984528	0.282534	
0.034856	0.999623	0.001773	0.995829	0.995828	3.984812	0.282525	
0.039063	0.999607	0.001840	0.995699	0.995697	3.984355	0.282537	
0.043269	0.999542	0.002130	0.995062	0.995060	3.982064	0.282600	
0.046142	0.999465	0.002467	0.994328	0.994325	3.979430	0.282672	
0.047608	0.999418	0.002667	0.993897	0.993894	3.977890	0.282713	
0.050481	0.999328	0.003053	0.993079	0.993074	3.974968	0.282791	
0.054688	0.999243	0.003409	0.992335	0.992329	3.972322	0.282862	
0.058894	0.999230	0.003455	0.992262	0.992256	3.972082	0.282867	
0.061767	0.999235	0.003424	0.992356	0.992350	3.972437	0.282855	
0.063233	0.999230	0.003440	0.992335	0.992329	3.972376	0.282856	
0.066106	0.999198	0.003567	0.992083	0.992077	3.971490	0.282879	
0.070313	0.999073	0.004092	0.991001	0.990993	3.967649	0.282980	
0.074519	0.998857	0.004979	0.989191	0.989178	3.961242	0.283147	
0.077392	0.998692	0.005640	0.987873	0.987858	3.956604	0.283267	
0.078858	0.998621	0.005925	0.987311	0.987293	3.954626	0.283317	
0.081731	0.998532	0.006277	0.986624	0.986605	3.952219	0.283378	
0.085938	0.998499	0.006394	0.986429	0.986408	3.951564	0.283392	
0.090144	0.998488	0.006415	0.986443	0.986422	3.951664	0.283386	
0.093017	0.998418	0.006680	0.985950	0.985928	3.949957	0.283427	
0.094483	0.998359	0.006913	0.985497	0.985473	3.948371	0.283467	
0.097356	0.998177	0.007631	0.984107	0.984078	3.943501	0.283590	
0.101563	0.997792	0.009115	0.981279	0.981238	3.933638	0.283836	
0.105769	0.997400	0.010593	0.978529	0.978473	3.924093	0.284070	
0.108642	0.997240	0.011187	0.977448	0.977385	3.920362	0.284159	
0.110108	0.997202	0.011329	0.977197	0.977133	3.919501	0.284179	
0.112981	0.997179	0.011397	0.977112	0.977047	3.919244	0.284182	
0.117188	0.997124	0.011571	0.976864	0.976797	3.918457	0.284195	
0.121394	0.996875	0.012476	0.975252	0.975175	3.912926	0.284325	
0.124267	0.996548	0.013687	0.973060	0.972967	3.905351	0.284507	
0.125733	0.996339	0.014449	0.971696	0.971592	3.900648	0.284619	
0.128606	0.995861	0.016166	0.968671	0.968541	3.890266	0.284862	
0.132813	0.995237	0.018373	0.964856	0.964688	3.877218	0.285162	
0.137019	0.994924	0.019463	0.963028	0.962839	3.871006	0.285301	
0.139892	0.994887	0.019579	0.962869	0.962679	3.870506	0.285309	
0.141358	0.994860	0.019655	0.962775	0.962582	3.870222	0.285311	
0.144231	0.994737	0.020055	0.962153	0.961953	3.868167	0.285352	
0.148438	0.994243	0.021755	0.959323	0.959087	3.858562	0.285565	
0.152644	0.993340	0.024862	0.954146	0.953839	3.840935	0.285960	
0.155517	0.992578	0.027430	0.949963	0.949590	3.826764	0.286269	
0.156983	0.992190	0.028715	0.947907	0.947498	3.819823	0.286417	
0.159856	0.991583	0.030719	0.944733	0.944265	3.809122	0.286643	
0.164063	0.991154	0.032125	0.942555	0.942043	3.801805	0.286795	
0.168269	0.991025	0.032516	0.942017	0.941493	3.800075	0.286823	
0.171142	0.990761	0.033343	0.940793	0.940242	3.796039	0.286899	
0.172608	0.990520	0.034116	0.939614	0.939037	3.792099	0.286978	
0.175481	0.989819	0.036394	0.936093	0.935437	3.780237	0.287224	
0.179688	0.988320	0.041204	0.928766	0.927927	3.755573	0.287730	
0.183894	0.986641	0.046469	0.920974	0.919909	3.729458	0.288245	
0.186767	0.985763	0.049168	0.917093	0.915901	3.716518	0.288489	
0.188233	0.985479	0.050046	0.915831	0.914597	3.712293	0.288570	
0.191106	0.985220	0.050851	0.914696	0.913422	3.708501	0.288642	
0.195313	0.984935	0.051700	0.913553	0.912237	3.704759	0.288704	
0.199519	0.984015	0.054458	0.909724	0.908265	3.692078	0.288929	
0.202392	0.982805	0.058134	0.904568	0.902907	3.674819	0.289251	
0.203858	0.982076	0.060347	0.901475	0.899687	3.664428	0.289446	
0.206731	0.980399	0.065347	0.894632	0.892539	3.641531	0.289859	
0.210938	0.978051	0.072215	0.885495	0.882945	3.611038	0.290383	
0.215144	0.976613	0.076363	0.880131	0.877283	3.593167	0.290676	
0.218017	0.976328	0.077224	0.879009	0.876098	3.589359	0.290745	
0.219483	0.976225	0.077527	0.878623	0.875690	3.588066	0.290767	
0.222356	0.975778	0.078786	0.877055	0.874026	3.582892	0.290843	
0.226563	0.974065	0.083632	0.870966	0.867560	3.562638	0.291157	
0.230769	0.971099	0.092041	0.860465	0.856352	3.527353	0.291718	
0.233642	0.968744	0.098627	0.852439	0.847727	3.500316	0.292133	
0.235108	0.967532	0.101946	0.848502	0.843474	3.487114	0.292319	
0.237981	0.965526	0.107395	0.842159	0.836591	3.465849	0.292607	
0.242188	0.963962	0.111661	0.837248	0.831238	3.449257	0.292834	
0.246394	0.963482	0.113047	0.835615	0.829459	3.443590	0.292929	
0.249267	0.962674	0.115212	0.833184	0.826795	3.435410	0.293032	
0.250733	0.961875	0.117312	0.830867	0.824248	3.427673	0.293119	
0.253606	0.959652	0.123233	0.824297	0.817010	3.405443	0.293395	
0.257813	0.955311	0.134748	0.811753	0.803081	3.362594	0.293922	
0.262019	0.950779	0.146538	0.799401	0.789193	3.320194	0.294390	
0.264892	0.948366	0.152643	0.793297	0.782248	3.299354	0.294569	
0.266358	0.947534	0.154767	0.791179	0.779831	3.292042	0.294637	
0.269231	0.946812	0.156708	0.789176	0.777551	3.284922	0.294731	
0.273438	0.946047	0.158792	0.787009	0.775082	3.277142	0.294842	
0.277644	0.943372	0.165478	0.780563	0.767646	3.254903	0.295012	
0.280517	0.939884	0.174161	0.772350	0.758096	3.226340	0.295219	
0.281983	0.937946	0.179038	0.767751	0.752718	3.210069	0.295356	
0.284856	0.933829	0.189269	0.758351	0.741625	3.176706	0.295600	
0.289063	0.928384	0.202518	0.746707	0.727669	3.135208	0.295814	
0.293269	0.925104	0.210357	0.740117	0.719649	3.111646	0.295883	
0.296142	0.924487	0.212017	0.738589	0.717811	3.105769	0.295966	
0.297608	0.924340	0.212496	0.738085	0.717216	3.103687	0.296018	
0.300481	0.923212	0.215276	0.735705	0.714312	3.094902	0.296076	
0.304688	0.918607	0.226073	0.727054	0.703579	3.063680	0.296096	
0.308894	0.911299	0.243257	0.713671	0.686709	3.014196	0.296142	
0.311767	0.906345	0.254916	0.704857	0.675409	2.980800	0.296178	
0.313233	0.903946	0.260437	0.700856	0.670200	2.965662	0.296147	
0.316106	0.900015	0.269319	0.694657	0.662017	2.942249	0.296030	
0.320313	0.897110	0.275975	0.690038	0.655875	2.924393	0.295974	
0.324519	0.896309	0.278187	0.688224	0.653543	2.916594	0.296104	
0.327392	0.894431	0.282546	0.685191	0.649488	2.904589	0.296094	
0.328858	0.892393	0.287003	0.682331	0.645577	2.893688	0.295975	
0.331731	0.886948	0.299026	0.674710	0.635056	2.864004	0.295690	
0.335938	0.877774	0.319466	0.662132	0.617340	2.813209	0.295261	
0.340144	0.869841	0.336990	0.651934	0.602544	2.770823	0.294822	
0.343017	0.865918	0.345286	0.647509	0.595891	2.752641	0.294461	
0.344483	0.864498	0.348292	0.645924	0.593489	2.746049	0.294330	
0.347356	0.863544	0.350599	0.644509	0.591436	2.739574	0.294353	
0.351563	0.862185	0.354008	0.642348	0.588323	2.729454	0.294434	
0.355769	0.856063	0.366929	0.635811	0.578183	2.701588	0.293847	
0.358642	0.848365	0.382941	0.628238	0.566034	2.668825	0.292987	
0.360108	0.844556	0.391055	0.624416	0.559839	2.651522	0.292621	
0.362981	0.837588	0.405887	0.617651	0.548657	2.620177	0.291938	
0.367188	0.829610	0.422474	0.610626	0.536590	2.587191	0.290994	
0.371394	0.825096	0.431521	0.607112	0.530291	2.570811	0.290332	
0.374267	0.824250	0.433580	0.606074	0.528598	2.565231	0.290349	
0.375733	0.824202	0.433999	0.605705	0.528084	2.562885	0.290465	
0.378606	0.821872	0.438997	0.603614	0.524419	2.552316	0.290243	
0.382813	0.812171	0.458202	0.596857	0.511600	2.519666	0.288670	
0.387019	0.798698	0.485129	0.588024	0.494037	2.474212	0.286477	
0.389892	0.791891	0.499073	0.583587	0.484967	2.449663	0.285455	
0.391358	0.789026	0.504808	0.581880	0.481346	2.440204	0.284973	
0.394231	0.784184	0.514044	0.579396	0.475789	2.426923	0.283998	
0.398438	0.780568	0.521010	0.577500	0.471556	2.416477	0.283299	
0.402644	0.779342	0.524111	0.576262	0.469222	2.408298	0.283334	
0.405517	0.775778	0.531207	0.574325	0.464870	2.396921	0.282707	
0.406983	0.771634	0.538900	0.572582	0.460535	2.387324	0.281761	
0.409856	0.761355	0.558179	0.568408	0.449802	2.363169	0.279425	
0.414063	0.747341	0.585095	0.562878	0.434957	2.328025	0.276344	
0.418269	0.738900	0.601290	0.559810	0.426236	2.307405	0.274441	
0.421142	0.734958	0.608307	0.558727	0.422746	2.300792	0.273369	
0.422608	0.732973	0.611782	0.558214	0.421046	2.297746	0.272811	
0.425481	0.731670	0.614384	0.557650	0.419559	2.293705	0.272566	
0.429688	0.729257	0.619501	0.556529	0.416591	2.285016	0.272183	
0.433894	0.718448	0.638980	0.553896	0.407227	2.267259	0.269197	
0.436767	0.705083	0.662646	0.551269	0.396469	2.249203	0.265247	
0.438233	0.699580	0.672727	0.550157	0.391856	2.240521	0.263687	
0.441106	0.692230	0.686464	0.548654	0.385553	2.227890	0.261655	
0.445313	0.685457	0.698390	0.547568	0.380402	2.219843	0.259564	
0.449519	0.680231	0.706969	0.546962	0.376971	2.216724	0.257766	
0.452392	0.678697	0.710089	0.546551	0.375443	2.212726	0.257417	
0.453858	0.678568	0.710478	0.546422	0.375158	2.211472	0.257441	
0.456731	0.674367	0.717840	0.545846	0.372097	2.207091	0.256101	
0.460938	0.658973	0.743855	0.544485	0.362173	2.198411	0.250748	
0.465144	0.640097	0.776028	0.543163	0.350424	2.189819	0.244043	
0.468017	0.634191	0.785991	0.542802	0.346906	2.188024	0.241891	
0.469483	0.633753	0.786957	0.542713	0.346471	2.186788	0.241792	
0.472356	0.629980	0.792761	0.542570	0.344608	2.188054	0.240283	
0.476563	0.623775	0.802386	0.542341	0.341540	2.190150	0.237802	
0.480769	0.621361	0.806785	0.542104	0.339881	2.187979	0.237000	
0.483642	0.617526	0.812962	0.541951	0.337887	2.188652	0.235501	
0.485108	0.609655	0.825201	0.541833	0.334259	2.193101	0.232263	
0.487981	0.594291	0.849542	0.541644	0.327188	2.202207	0.225941	
0.492188	0.579572	0.873096	0.541477	0.320574	2.212488	0.219833	
0.496394	0.575238	0.879067	0.541412	0.319152	2.219271	0.217855	
0.499267	0.571264	0.884936	0.541353	0.317671	2.224335	0.216104	
0.500733	0.569312	0.887786	0.541327	0.316972	2.227051	0.215234	
0.503606	0.565320	0.893563	0.541267	0.315575	2.232896	0.213445	
0.507813	0.560914	0.900129	0.541201	0.313965	2.238955	0.211494	
0.512019	0.546028	0.921431	0.541030	0.309232	2.265317	0.204680	
0.514892	0.530428	0.944351	0.540838	0.304320	2.294900	0.197547	
0.516358	0.522404	0.956390	0.540717	0.301801	2.310860	0.193885	
0.519231	0.518233	0.961822	0.540558	0.300849	2.322117	0.191870	
0.523438	0.515290	0.964480	0.540311	0.300644	2.333787	0.190303	
0.527644	0.508534	0.973825	0.540068	0.298938	2.351372	0.187105	
0.530517	0.504343	0.979627	0.539915	0.297913	2.362782	0.185114	
0.531983	0.503684	0.979895	0.539819	0.298002	2.366584	0.184723	
0.534856	0.497319	0.987973	0.539445	0.296731	2.386642	0.181621	
0.539063	0.477647	1.013361	0.538094	0.292846	2.452406	0.172082	
0.543269	0.461322	1.034283	0.536695	0.289947	2.514056	0.164150	
0.546142	0.456465	1.039717	0.536088	0.289366	2.535706	0.161727	
0.547608	0.456001	1.039771	0.535943	0.289446	2.538994	0.161458	
0.550481	0.453801	1.041292	0.535500	0.289474	2.551556	0.160283	
0.554688	0.447586	1.049003	0.534844	0.288581	2.578994	0.157245	
0.558894	0.439774	1.057664	0.533700	0.287723	2.617013	0.153374	
0.561767	0.431674	1.065515	0.532149	0.287105	2.660382	0.149317	
0.563233	0.425778	1.071518	0.531010	0.286582	2.692315	0.146401	
0.566106	0.411621	1.087028	0.528327	0.285136	2.770860	0.139513	
0.570313	0.399649	1.098985	0.525611	0.284269	2.845187	0.133674	
0.574519	0.396097	1.100822	0.524410	0.284412	2.872144	0.131863	
0.577392	0.394022	1.102218	0.523790	0.284444	2.887596	0.130821	
0.578858	0.391640	1.104680	0.523248	0.284286	2.903541	0.129673	
0.581731	0.386918	1.109319	0.522108	0.284039	2.936425	0.127390	
0.585938	0.377329	1.116403	0.518952	0.283809	3.008609	0.122733	
0.590144	0.362194	1.126589	0.513341	0.283492	3.130838	0.115488	
0.593017	0.351183	1.134192	0.509124	0.283245	3.226177	0.110310	
0.594483	0.346680	1.137313	0.507365	0.283153	3.267028	0.108212	
0.597356	0.342436	1.139179	0.505404	0.283210	3.308176	0.106221	
0.601563	0.340232	1.139016	0.504141	0.283440	3.332315	0.105154	
0.605769	0.335654	1.141578	0.502224	0.283512	3.378612	0.103026	
0.608642	0.330177	1.144437	0.499735	0.283513	3.434672	0.100515	
0.610108	0.327001	1.145337	0.498032	0.283553	3.468536	0.099060	
0.612981	0.319616	1.146176	0.493622	0.283679	3.550249	0.095703	
0.617188	0.305417	1.147535	0.484899	0.283807	3.716966	0.089377	
0.621394	0.295100	1.147857	0.478322	0.283914	3.848365	0.084871	
0.624267	0.292377	1.147125	0.476372	0.284003	3.885434	0.083685	
0.625733	0.292127	1.146567	0.476074	0.284057	3.889492	0.083570	
0.628606	0.290891	1.146037	0.475181	0.284152	3.907331	0.083026	
0.632813	0.285848	1.145747	0.471903	0.284282	3.978080	0.080858	
0.637019	0.277454	1.141907	0.465206	0.284313	4.098887	0.077318	
0.639892	0.270292	1.136322	0.458746	0.284242	4.206441	0.074353	
0.641358	0.266413	1.132790	0.455107	0.284174	4.266680	0.072767	
0.644231	0.258630	1.125888	0.447938	0.284016	4.392612	0.069621	
0.648438	0.252422	1.119465	0.442031	0.283863	4.498222	0.067148	
0.652644	0.250961	1.117217	0.440486	0.283864	4.524438	0.066565	
0.655517	0.249942	1.115874	0.439497	0.283886	4.543222	0.066158	
0.656983	0.248505	1.114313	0.438144	0.283860	4.569073	0.065591	
0.659856	0.244590	1.109366	0.434218	0.283711	4.639765	0.064064	
0.664063	0.236797	1.094855	0.424913	0.282988	4.780258	0.061105	
0.668269	0.227905	1.074641	0.413415	0.281816	4.946198	0.057815	
0.671142	0.222696	1.061848	0.406586	0.281039	5.047933	0.055922	
0.672608	0.220777	1.057160	0.404126	0.280757	5.086708	0.055228	
0.675481	0.219108	1.052588	0.401849	0.280470	5.120206	0.054631	
0.679688	0.218578	1.050887	0.401093	0.280399	5.131320	0.054440	
0.683894	0.215998	1.043702	0.397611	0.279966	5.184587	0.053520	
0.686767	0.212358	1.032307	0.392293	0.279142	5.257953	0.052250	
0.688233	0.210132	1.024440	0.388783	0.278519	5.301791	0.051488	
0.691106	0.205550	1.006115	0.380993	0.276957	5.389573	0.049953	
0.695313	0.198838	0.976776	0.369203	0.274348	5.519018	0.047752	
0.699519	0.194795	0.958160	0.362078	0.272660	5.598907	0.046446	
0.702392	0.194006	0.954384	0.360660	0.272305	5.614382	0.046194	
0.703858	0.194021	0.954282	0.360627	0.272284	5.613517	0.046201	
0.706731	0.193727	0.952651	0.360035	0.272127	5.618793	0.046110	
0.710938	0.190990	0.938725	0.354948	0.270798	5.671435	0.045247	
0.715144	0.186173	0.910515	0.344990	0.267817	5.754162	0.043788	
0.718017	0.182508	0.886367	0.336798	0.265105	5.810273	0.042718	
0.719483	0.180796	0.874308	0.332808	0.263707	5.834362	0.042230	
0.722356	0.177738	0.852467	0.325759	0.261178	5.877825	0.041361	
0.726563	0.175614	0.836858	0.320826	0.259332	5.906846	0.040767	
0.730769	0.175336	0.834446	0.320028	0.258984	5.908287	0.040697	
0.733642	0.174950	0.831137	0.318971	0.258544	5.911265	0.040597	
0.735108	0.174303	0.825981	0.317365	0.257907	5.918593	0.040422	
0.737981	0.172271	0.809532	0.312316	0.255868	5.941066	0.039875	
0.742188	0.168311	0.773866	0.301558	0.251160	5.968961	0.038868	
0.746394	0.164500	0.736057	0.290504	0.245943	5.980389	0.037951	
0.749267	0.162595	0.716134	0.284826	0.243133	5.981299	0.037509	
0.750733	0.161944	0.709337	0.282918	0.242176	5.981717	0.037357	
0.753606	0.161396	0.703361	0.281206	0.241283	5.979883	0.037237	
0.757813	0.161273	0.701393	0.280558	0.240888	5.974676	0.037225	
0.762019	0.160085	0.687726	0.276688	0.238831	5.967613	0.036972	
0.764892	0.158344	0.667486	0.271085	0.235811	5.956955	0.036603	
0.766358	0.157264	0.654465	0.267514	0.233834	5.947571	0.036382	
0.769231	0.155147	0.627446	0.260145	0.229605	5.919660	0.035977	
0.773438	0.152468	0.591101	0.250395	0.223759	5.870331	0.035504	
0.777644	0.150972	0.569970	0.244809	0.220286	5.836466	0.035257	
0.780517	0.150647	0.565107	0.243486	0.219431	5.826382	0.035212	
0.781983	0.150603	0.564233	0.243214	0.219241	5.823029	0.035211	
0.784856	0.150431	0.561141	0.242312	0.218628	5.813381	0.035200	
0.789063	0.149164	0.542037	0.237285	0.215373	5.775459	0.035018	
0.793269	0.146960	0.507624	0.228381	0.209447	5.700770	0.034726	
0.796142	0.145352	0.481080	0.221576	0.204756	5.634772	0.034547	
0.797608	0.144645	0.468906	0.218454	0.202552	5.601334	0.034481	
0.800481	0.143462	0.448124	0.213168	0.198763	5.541893	0.034382	
0.804688	0.142555	0.431788	0.209025	0.195736	5.492237	0.034319	
0.808894	0.142267	0.426109	0.207507	0.194591	5.471143	0.034316	
0.811767	0.142003	0.420814	0.206103	0.193530	5.451442	0.034314	
0.813233	0.141716	0.415321	0.204698	0.192476	5.432736	0.034303	
0.816106	0.140824	0.398557	0.200507	0.189322	5.377559	0.034262	
0.820313	0.139097	0.364867	0.192130	0.182871	5.258828	0.034221	
0.824519	0.137517	0.332335	0.184062	0.176468	5.132991	0.034245	
0.827392	0.136749	0.315869	0.179979	0.173157	5.064959	0.034282	
0.828858	0.136473	0.309909	0.178509	0.171955	5.039969	0.034297	
0.831731	0.136140	0.302643	0.176711	0.170477	5.008875	0.034319	
0.835938	0.135911	0.297309	0.175339	0.169332	4.983602	0.034349	
0.840144	0.135376	0.285129	0.172299	0.166796	4.928379	0.034404	
0.843017	0.134690	0.269640	0.168503	0.163607	4.858754	0.034475	
0.844483	0.134261	0.259839	0.166116	0.161584	4.814041	0.034524	
0.847356	0.133411	0.239983	0.161268	0.157426	4.720029	0.034645	
0.851563	0.132381	0.214915	0.155112	0.152055	4.594479	0.034844	
0.855769	0.131766	0.199564	0.151346	0.148722	4.514745	0.034987	
0.858642	0.131566	0.194528	0.150115	0.147625	4.488265	0.035037	
0.860108	0.131501	0.192888	0.149714	0.147268	4.479610	0.035054	
0.862981	0.131388	0.189901	0.148961	0.146592	4.462866	0.035089	
0.867188	0.130963	0.178905	0.146253	0.144157	4.402979	0.035213	
0.871394	0.130229	0.159759	0.141566	0.139904	4.297168	0.035444	
0.874267	0.129680	0.145100	0.137970	0.136605	4.213623	0.035643	
0.875733	0.129437	0.138465	0.136329	0.135088	4.174650	0.035741	
0.878606	0.129046	0.127595	0.133623	0.132572	4.109299	0.035916	
0.882813	0.128714	0.118299	0.131321	0.130420	4.053017	0.036071	
0.887019	0.128581	0.114613	0.130422	0.129577	4.030981	0.036132	
0.889892	0.128507	0.112504	0.129901	0.129088	4.018065	0.036170	
0.891358	0.128443	0.110631	0.129430	0.128644	4.006259	0.036205	
0.894231	0.128233	0.104601	0.127925	0.127223	3.968510	0.036317	
0.898438	0.127774	0.091284	0.124595	0.124063	3.883826	0.036579	
0.902644	0.127331	0.078100	0.121262	0.120873	3.797125	0.036867	
0.905517	0.127115	0.071483	0.119567	0.119242	3.752244	0.037023	
0.906983	0.127040	0.069155	0.118968	0.118664	3.736269	0.037081	
0.909856	0.126940	0.066118	0.118200	0.117922	3.715836	0.037153	
0.914063	0.126887	0.064552	0.117822	0.117558	3.705906	0.037187	
0.918269	0.126813	0.062268	0.117244	0.116998	3.690420	0.037243	
0.921142	0.126698	0.058651	0.116309	0.116091	3.665145	0.037338	
0.922608	0.126614	0.056016	0.115627	0.115429	3.646635	0.037408	
0.925481	0.126427	0.050108	0.114094	0.113935	3.604779	0.037569	
0.929688	0.126183	0.042218	0.112012	0.111900	3.547210	0.037799	
0.933894	0.126034	0.037284	0.110695	0.110607	3.510380	0.037952	
0.936767	0.125988	0.035757	0.110291	0.110211	3.499087	0.037999	
0.938233	0.125975	0.035363	0.110194	0.110116	3.496416	0.038010	
0.941106	0.125966	0.035095	0.110138	0.110060	3.494924	0.038015	
0.945313	0.125932	0.033986	0.109849	0.109777	3.486859	0.038049	
0.949519	0.125829	0.030505	0.108909	0.108851	3.460276	0.038164	
0.952392	0.125728	0.027068	0.107974	0.107928	3.433689	0.038280	
0.953858	0.125676	0.025299	0.107489	0.107449	3.419865	0.038342	
0.956731	0.125591	0.022310	0.106659	0.106627	3.396028	0.038450	
0.960938	0.125514	0.019588	0.105894	0.105870	3.373961	0.038552	
0.965144	0.125487	0.018652	0.105641	0.105619	3.366684	0.038585	
0.968017	0.125484	0.018577	0.105631	0.105610	3.366481	0.038586	
0.969483	0.125482	0.018526	0.105622	0.105600	3.366233	0.038586	
0.972356	0.125471	0.018153	0.105520	0.105500	3.363303	0.038600	
0.976563	0.125418	0.016226	0.104975	0.104958	3.347469	0.038675	
0.980769	0.125341	0.013417	0.104169	0.104158	3.323981	0.038787	
0.983642	0.125293	0.011660	0.103658	0.103649	3.309018	0.038860	
0.985108	0.125276	0.010995	0.103461	0.103454	3.303239	0.038889	
0.987981	0.125251	0.010068	0.103187	0.103180	3.295145	0.038929	
0.992188	0.125238	0.009579	0.103050	0.103044	3.291140	0.038948	
0.996394	0.125238	0.009577	0.103061	0.103055	3.291508	0.038946	
0.999267	0.125234	0.009452	0.103029	0.103023	3.290574	0.038950	
