TITLE = "DG1DBEX32-P4RK6w1000iv80"
VARIABLES = "x" "Density" "Velocity in x" "Energy" "Pressure" "Temperature" "Fugacity"
ZONE T = "Final Time 0.10"
I = 160, J = 1, K = 1, F = POINT

0.001466	1.264994	0.000000	1.120324	1.120324	3.993856	0.283063	
0.007211	1.264994	0.000000	1.120324	1.120324	3.993856	0.283063	
0.015625	1.264994	-0.000000	1.120324	1.120324	3.993856	0.283063	
0.024039	1.264994	0.000000	1.120324	1.120324	3.993856	0.283063	
0.029784	1.264994	0.000000	1.120324	1.120324	3.993856	0.283063	
0.032716	1.264994	-0.000000	1.120324	1.120324	3.993856	0.283063	
0.038461	1.264994	-0.000000	1.120324	1.120324	3.993856	0.283063	
0.046875	1.264994	0.000000	1.120324	1.120324	3.993856	0.283063	
0.055289	1.264994	-0.000000	1.120324	1.120324	3.993856	0.283063	
0.061034	1.264994	-0.000000	1.120324	1.120324	3.993856	0.283063	
0.063966	1.264994	-0.000000	1.120324	1.120324	3.993856	0.283063	
0.069711	1.264994	0.000000	1.120324	1.120324	3.993856	0.283063	
0.078125	1.264994	-0.000000	1.120324	1.120324	3.993856	0.283063	
0.086539	1.264994	-0.000000	1.120324	1.120324	3.993856	0.283063	
0.092284	1.264994	0.000000	1.120324	1.120324	3.993856	0.283063	
0.095216	1.264994	0.000000	1.120324	1.120324	3.993856	0.283063	
0.100961	1.264994	-0.000000	1.120324	1.120324	3.993856	0.283063	
0.109375	1.264994	-0.000000	1.120324	1.120324	3.993856	0.283063	
0.117789	1.264994	0.000000	1.120324	1.120324	3.993856	0.283063	
0.123534	1.264994	-0.000000	1.120324	1.120324	3.993856	0.283063	
0.126466	1.264994	-0.000000	1.120324	1.120324	3.993857	0.283063	
0.132211	1.264994	0.000000	1.120324	1.120324	3.993856	0.283063	
0.140625	1.264994	0.000000	1.120324	1.120324	3.993856	0.283063	
0.149039	1.264994	-0.000000	1.120324	1.120324	3.993858	0.283063	
0.154784	1.264994	-0.000000	1.120324	1.120324	3.993857	0.283063	
0.157716	1.264993	0.000001	1.120322	1.120322	3.993852	0.283063	
0.163461	1.264994	-0.000000	1.120324	1.120324	3.993856	0.283063	
0.171875	1.264995	-0.000002	1.120326	1.120326	3.993863	0.283063	
0.180289	1.264993	0.000001	1.120323	1.120323	3.993855	0.283063	
0.186034	1.264994	-0.000001	1.120326	1.120326	3.993857	0.283063	
0.188966	1.265001	-0.000014	1.120345	1.120345	3.993905	0.283063	
0.194711	1.265001	-0.000013	1.120342	1.120342	3.993904	0.283063	
0.203125	1.264996	-0.000004	1.120331	1.120331	3.993872	0.283063	
0.211539	1.265000	-0.000011	1.120337	1.120337	3.993894	0.283063	
0.217284	1.264962	0.000072	1.120198	1.120198	3.993658	0.283063	
0.220216	1.264856	0.000275	1.119891	1.119891	3.992985	0.283063	
0.225961	1.264468	0.001041	1.118688	1.118687	3.989993	0.283079	
0.234375	1.263167	0.003603	1.114667	1.114658	3.979629	0.283139	
0.242789	1.260436	0.008899	1.106546	1.106496	3.959211	0.283230	
0.248534	1.257380	0.014756	1.097769	1.097632	3.937365	0.283305	
0.251466	1.255380	0.018563	1.092154	1.091938	3.923251	0.283350	
0.257211	1.250507	0.027758	1.078815	1.078333	3.889687	0.283441	
0.265625	1.241068	0.045406	1.054050	1.052770	3.826514	0.283577	
0.274039	1.229017	0.067754	1.024083	1.021262	3.748494	0.283698	
0.279784	1.219457	0.085366	1.001457	0.997014	3.688403	0.283758	
0.282716	1.214207	0.094993	0.989440	0.983962	3.655719	0.283788	
0.288461	1.203311	0.114971	0.965289	0.957336	3.588945	0.283834	
0.296875	1.185943	0.146678	0.928876	0.916118	3.485144	0.283864	
0.305289	1.167213	0.180774	0.892276	0.873204	3.375019	0.283894	
0.311034	1.153937	0.204984	0.867884	0.843641	3.298231	0.283909	
0.313966	1.147059	0.217559	0.855733	0.828587	3.259029	0.283909	
0.319711	1.133258	0.242590	0.832414	0.799068	3.181076	0.283909	
0.328125	1.112552	0.280124	0.799814	0.756164	3.066312	0.283894	
0.336539	1.091372	0.318557	0.769307	0.713932	2.951075	0.283879	
0.342284	1.076671	0.345219	0.749783	0.685626	2.872883	0.283849	
0.345216	1.069102	0.358931	0.740229	0.671362	2.833019	0.283834	
0.350961	1.054164	0.385980	0.722329	0.643804	2.755151	0.283804	
0.359375	1.032071	0.425964	0.698096	0.604463	2.641949	0.283758	
0.367789	1.009781	0.466307	0.676244	0.566460	2.530433	0.283698	
0.373534	0.994471	0.494007	0.662668	0.541321	2.455286	0.283653	
0.376466	0.986638	0.508174	0.656158	0.528763	2.417415	0.283622	
0.382211	0.971267	0.535975	0.644190	0.504682	2.343947	0.283562	
0.390625	0.948742	0.576698	0.628535	0.470768	2.238008	0.283486	
0.399039	0.926295	0.617275	0.615020	0.438548	2.135387	0.283381	
0.404784	0.911079	0.644777	0.606964	0.417579	2.067211	0.283305	
0.407716	0.903370	0.658710	0.603207	0.407222	2.032926	0.283275	
0.413461	0.888421	0.685714	0.596527	0.387658	1.967802	0.283184	
0.421875	0.867072	0.724208	0.588262	0.360882	1.876912	0.283033	
0.430289	0.846799	0.760684	0.581718	0.336722	1.793089	0.282852	
0.436034	0.833928	0.783773	0.578190	0.322049	1.741126	0.282716	
0.438966	0.827788	0.794765	0.576675	0.315238	1.716979	0.282625	
0.444711	0.816809	0.814322	0.574226	0.303405	1.674465	0.282444	
0.453125	0.804015	0.836899	0.571816	0.290251	1.627283	0.282112	
0.461539	0.795759	0.851120	0.570541	0.282314	1.598820	0.281780	
0.467284	0.792647	0.856257	0.570122	0.279547	1.589151	0.281583	
0.470216	0.791643	0.857816	0.570002	0.278738	1.586642	0.281477	
0.475961	0.790376	0.859610	0.569863	0.277847	1.583939	0.281311	
0.484375	0.789568	0.860356	0.569759	0.277535	1.583510	0.281115	
0.492789	0.789186	0.860412	0.569710	0.277590	1.584572	0.280934	
0.498534	0.788939	0.860406	0.569684	0.277658	1.585311	0.280813	
0.501466	0.788801	0.860384	0.569672	0.277712	1.585838	0.280737	
0.507211	0.788491	0.860251	0.569612	0.277858	1.587193	0.280556	
0.515625	0.787987	0.860021	0.569455	0.278044	1.589068	0.280284	
0.524039	0.787320	0.859989	0.569256	0.278112	1.590506	0.279997	
0.529784	0.786669	0.860063	0.569090	0.278137	1.591795	0.279725	
0.532716	0.786323	0.860065	0.569003	0.278177	1.592574	0.279574	
0.538461	0.784966	0.860108	0.568653	0.278300	1.595590	0.278985	
0.546875	0.781425	0.860459	0.567604	0.278324	1.601789	0.277565	
0.555289	0.771185	0.862280	0.564890	0.278192	1.618821	0.273532	
0.561034	0.751692	0.865028	0.559481	0.278246	1.654699	0.265678	
0.563966	0.734101	0.867601	0.554430	0.278140	1.687823	0.258609	
0.569711	0.680348	0.874710	0.538383	0.278110	1.801555	0.236707	
0.578125	0.556953	0.890082	0.498546	0.277924	2.148176	0.185623	
0.586539	0.424452	0.905097	0.452102	0.278247	2.756486	0.130703	
0.592284	0.349582	0.911029	0.423657	0.278586	3.310524	0.100599	
0.595216	0.319211	0.912034	0.411514	0.278753	3.610404	0.088772	
0.600961	0.271897	0.910791	0.391741	0.278966	4.212127	0.070964	
0.609375	0.227122	0.902154	0.371523	0.279097	5.014819	0.054983	
0.617789	0.201877	0.890063	0.359051	0.279087	5.622304	0.046449	
0.623534	0.191667	0.882372	0.353649	0.279035	5.916548	0.043095	
0.626466	0.187967	0.878736	0.351591	0.279019	6.029625	0.041902	
0.632211	0.182812	0.872890	0.348641	0.278996	6.194473	0.040256	
0.640625	0.178679	0.866843	0.346206	0.279075	6.335876	0.038942	
0.649039	0.176828	0.863236	0.345081	0.279197	6.402925	0.038353	
0.654784	0.176235	0.861899	0.344696	0.279236	6.427557	0.038156	
0.657716	0.176072	0.861403	0.344560	0.279236	6.431342	0.038111	
0.663461	0.175888	0.861514	0.344434	0.279161	6.438852	0.038050	
0.671875	0.175743	0.862617	0.344375	0.278989	6.438762	0.038020	
0.680289	0.175771	0.862775	0.344399	0.278978	6.435584	0.038035	
0.686034	0.175833	0.862486	0.344426	0.279027	6.434815	0.038050	
0.688966	0.175872	0.862356	0.344438	0.279044	6.432482	0.038066	
0.694711	0.175915	0.862046	0.344536	0.279173	6.435577	0.038066	
0.703125	0.175869	0.862057	0.344697	0.279349	6.442705	0.038035	
0.711539	0.175859	0.862526	0.344759	0.279344	6.441971	0.038035	
0.717284	0.175883	0.863026	0.344769	0.279269	6.438528	0.038050	
0.720216	0.175923	0.863102	0.344793	0.279266	6.436160	0.038066	
0.725961	0.175980	0.863267	0.344854	0.279281	6.435085	0.038081	
0.734375	0.175915	0.863767	0.344972	0.279348	6.440830	0.038050	
0.742789	0.175919	0.864031	0.345092	0.279426	6.441107	0.038050	
0.748534	0.175990	0.863805	0.345239	0.279581	6.441093	0.038066	
0.751466	0.176032	0.863439	0.345367	0.279749	6.444149	0.038066	
0.757211	0.176136	0.862970	0.345591	0.280005	6.446542	0.038081	
0.765625	0.176045	0.864376	0.345682	0.279917	6.450389	0.038050	
0.774039	0.175974	0.866057	0.345729	0.279734	6.445164	0.038050	
0.779784	0.176180	0.864552	0.346185	0.280342	6.454990	0.038066	
0.782716	0.176208	0.866073	0.345969	0.279884	6.441248	0.038111	
0.788461	0.176091	0.868186	0.346285	0.279921	6.448480	0.038066	
0.796875	0.175625	0.859674	0.344237	0.279340	6.451173	0.037960	
0.805289	0.175036	0.851094	0.340332	0.276937	6.418485	0.037930	
0.811034	0.173103	0.821661	0.329850	0.271417	6.355292	0.037703	
0.813966	0.171738	0.791840	0.322331	0.268490	6.338690	0.037461	
0.819711	0.158136	0.609738	0.255772	0.226376	5.803249	0.036087	
0.828125	0.133817	0.121712	0.127024	0.126033	3.819904	0.037597	
0.836539	0.126917	-0.038887	0.094635	0.094539	3.022855	0.040014	
0.842284	0.131013	0.049095	0.109810	0.109652	3.395484	0.039002	
0.845216	0.129737	0.020448	0.105172	0.105145	3.287638	0.039244	
0.850961	0.127764	-0.015082	0.099072	0.099057	3.145884	0.039501	
0.859375	0.128912	0.003891	0.101937	0.101936	3.207729	0.039470	
0.867789	0.128611	0.000366	0.101560	0.101560	3.202834	0.039410	
0.873534	0.128360	-0.005487	0.100596	0.100594	3.180329	0.039470	
0.876466	0.128783	0.001985	0.101607	0.101607	3.201309	0.039470	
0.882211	0.128663	0.000754	0.101576	0.101576	3.202933	0.039425	
0.890625	0.128616	-0.000401	0.101367	0.101367	3.198051	0.039440	
0.899039	0.128653	0.000280	0.101457	0.101457	3.199879	0.039440	
0.904784	0.128631	-0.000021	0.101430	0.101430	3.198796	0.039440	
0.907716	0.128620	-0.000313	0.101376	0.101376	3.198247	0.039440	
0.913461	0.128642	0.000093	0.101433	0.101433	3.199351	0.039440	
0.921875	0.128635	-0.000023	0.101420	0.101420	3.198983	0.039440	
0.930289	0.128636	-0.000006	0.101421	0.101421	3.199053	0.039440	
0.936034	0.128639	0.000045	0.101428	0.101428	3.199199	0.039440	
0.938966	0.128635	-0.000017	0.101420	0.101420	3.198994	0.039440	
0.944711	0.128636	-0.000007	0.101421	0.101421	3.199046	0.039440	
0.953125	0.128636	0.000005	0.101423	0.101423	3.199075	0.039440	
0.961539	0.128636	-0.000003	0.101422	0.101422	3.199051	0.039440	
0.967284	0.128636	0.000000	0.101422	0.101422	3.199065	0.039440	
0.970216	0.128636	0.000004	0.101423	0.101423	3.199073	0.039440	
0.975961	0.128636	-0.000001	0.101422	0.101422	3.199058	0.039440	
0.984375	0.128636	0.000000	0.101422	0.101422	3.199063	0.039440	
0.992789	0.128636	0.000000	0.101422	0.101422	3.199062	0.039440	
0.998534	0.128636	-0.000001	0.101422	0.101422	3.199060	0.039440	
