TITLE = "DG1DBEX32-P5RK4w10iv80"
VARIABLES = "x" "Density" "Velocity in x" "Energy" "Pressure" "Temperature" "Fugacity"
ZONE T = "Final Time 0.10"
I = 192, J = 1, K = 1, F = POINT

0.001055	1.260684	0.001758	1.119026	1.119024	4.000809	0.282112	
0.005294	1.260611	0.001486	1.118613	1.118612	3.999804	0.282127	
0.011897	1.260501	0.001276	1.117827	1.117826	3.997472	0.282172	
0.019353	1.260334	0.001427	1.116338	1.116337	3.992605	0.282278	
0.025956	1.260212	0.001599	1.115236	1.115235	3.989121	0.282354	
0.030195	1.260195	0.001538	1.115120	1.115118	3.989012	0.282354	
0.032305	1.260194	0.001494	1.115124	1.115122	3.989004	0.282354	
0.036544	1.260182	0.001458	1.115023	1.115022	3.988927	0.282354	
0.043147	1.260051	0.001815	1.113829	1.113827	3.984849	0.282444	
0.050603	1.259839	0.002465	1.111925	1.111921	3.979177	0.282565	
0.057206	1.259777	0.002633	1.111395	1.111390	3.977703	0.282595	
0.061445	1.259791	0.002570	1.111517	1.111513	3.977791	0.282595	
0.063555	1.259777	0.002609	1.111399	1.111395	3.977705	0.282595	
0.067794	1.259664	0.002968	1.110452	1.110446	3.974826	0.282656	
0.074397	1.259339	0.003994	1.107833	1.107823	3.966300	0.282837	
0.081853	1.259091	0.004766	1.105891	1.105877	3.960434	0.282958	
0.088456	1.259084	0.004787	1.105839	1.105824	3.960387	0.282958	
0.092695	1.258977	0.005118	1.105037	1.105020	3.958105	0.283003	
0.094805	1.258857	0.005482	1.104163	1.104144	3.955202	0.283063	
0.099044	1.258481	0.006611	1.101491	1.101464	3.947478	0.283214	
0.105647	1.257980	0.008105	1.097995	1.097953	3.936844	0.283426	
0.113103	1.257813	0.008603	1.096840	1.096794	3.933134	0.283501	
0.119706	1.257583	0.009271	1.095344	1.095290	3.928499	0.283592	
0.123945	1.257049	0.010793	1.091959	1.091886	3.918779	0.283773	
0.126055	1.256726	0.011701	1.089964	1.089878	3.912521	0.283894	
0.130294	1.256107	0.013426	1.086205	1.086092	3.901264	0.284106	
0.136897	1.255678	0.014634	1.083569	1.083434	3.893325	0.284257	
0.144353	1.255360	0.015522	1.081694	1.081543	3.887663	0.284362	
0.150956	1.254199	0.018620	1.075301	1.075084	3.868944	0.284695	
0.155195	1.253109	0.021482	1.069489	1.069200	3.851793	0.284997	
0.157305	1.252662	0.022647	1.067147	1.066826	3.844891	0.285118	
0.161544	1.252161	0.023970	1.064471	1.064111	3.836629	0.285269	
0.168147	1.251769	0.025031	1.062321	1.061929	3.830090	0.285390	
0.175603	1.250229	0.028899	1.054933	1.054411	3.808318	0.285752	
0.182206	1.247711	0.035108	1.043291	1.042522	3.774123	0.286311	
0.186445	1.246602	0.037820	1.038278	1.037386	3.759307	0.286553	
0.188555	1.246291	0.038595	1.036835	1.035906	3.755411	0.286613	
0.192794	1.246002	0.039376	1.035321	1.034355	3.750638	0.286704	
0.199397	1.244404	0.043184	1.028584	1.027424	3.730971	0.287006	
0.206853	1.240521	0.052151	1.013204	1.011518	3.685869	0.287670	
0.213456	1.237668	0.058725	1.002091	0.999957	3.653216	0.288154	
0.217695	1.237105	0.060089	0.999732	0.997499	3.645981	0.288275	
0.219805	1.236783	0.060862	0.998408	0.996117	3.642129	0.288335	
0.224044	1.235405	0.063980	0.993359	0.990830	3.627208	0.288546	
0.230647	1.230778	0.073989	0.977839	0.974470	3.581820	0.289120	
0.238103	1.225519	0.085312	0.960606	0.956147	3.530451	0.289785	
0.244706	1.223704	0.089368	0.954384	0.949497	3.511551	0.290057	
0.248945	1.222298	0.092418	0.949881	0.944661	3.498349	0.290223	
0.251055	1.220902	0.095298	0.945807	0.940263	3.486172	0.290359	
0.255294	1.216514	0.104158	0.933651	0.927052	3.450105	0.290722	
0.261897	1.209545	0.118174	0.914815	0.906369	3.393472	0.291295	
0.269353	1.205533	0.126453	0.903680	0.894042	3.359355	0.291688	
0.275956	1.202486	0.132616	0.895765	0.885191	3.334850	0.291945	
0.280195	1.197151	0.142781	0.883521	0.871319	3.297873	0.292202	
0.282305	1.193894	0.148878	0.876403	0.863172	3.276033	0.292338	
0.286544	1.187486	0.160893	0.862590	0.847220	3.233230	0.292610	
0.293147	1.181984	0.171539	0.850244	0.832854	3.194006	0.292942	
0.300603	1.177823	0.179537	0.841299	0.822317	3.164841	0.293184	
0.307206	1.167808	0.197461	0.823141	0.800374	3.107128	0.293335	
0.311445	1.158899	0.213123	0.808024	0.781704	3.058279	0.293395	
0.313555	1.155268	0.219478	0.802041	0.774216	3.038343	0.293425	
0.317794	1.151083	0.227157	0.794601	0.764903	3.012775	0.293561	
0.324397	1.147081	0.234703	0.787294	0.755700	2.987512	0.293727	
0.331853	1.135138	0.254796	0.770554	0.733706	2.930666	0.293531	
0.338456	1.118451	0.282639	0.748864	0.704190	2.854190	0.293168	
0.342695	1.112021	0.293433	0.740717	0.692843	2.824087	0.293063	
0.344805	1.110162	0.296607	0.738264	0.689430	2.815024	0.293048	
0.349044	1.108023	0.300757	0.734819	0.684706	2.801216	0.293168	
0.355647	1.096986	0.318524	0.722999	0.667351	2.756995	0.292700	
0.363103	1.074806	0.353251	0.702147	0.635086	2.676333	0.291431	
0.369706	1.062126	0.373676	0.690372	0.616218	2.626810	0.290857	
0.373945	1.060070	0.377349	0.688014	0.612541	2.616302	0.290873	
0.376055	1.057867	0.380811	0.686120	0.609416	2.608217	0.290752	
0.380294	1.049180	0.394139	0.679581	0.598088	2.579971	0.290117	
0.386897	1.026305	0.428135	0.664743	0.570682	2.514025	0.288063	
0.394353	1.006092	0.458578	0.652448	0.546661	2.454267	0.286296	
0.400956	1.001295	0.466458	0.649065	0.540132	2.436495	0.286039	
0.405195	0.993334	0.478275	0.644940	0.531329	2.414788	0.285254	
0.407305	0.985650	0.488817	0.641848	0.524092	2.399209	0.284242	
0.411544	0.966966	0.515176	0.634516	0.506196	2.359189	0.281855	
0.418147	0.945041	0.546922	0.626252	0.484910	2.309223	0.279151	
0.425603	0.935389	0.560763	0.622816	0.475747	2.287603	0.277928	
0.432206	0.922181	0.579385	0.619088	0.464306	2.262430	0.276025	
0.436445	0.901593	0.607402	0.614546	0.448231	2.230237	0.272671	
0.438555	0.889387	0.623064	0.612567	0.439933	2.216284	0.270406	
0.442794	0.873864	0.644554	0.609694	0.428170	2.192665	0.267778	
0.449397	0.865480	0.656765	0.607883	0.421225	2.176519	0.266509	
0.456853	0.849991	0.676353	0.606158	0.411742	2.162745	0.263352	
0.463456	0.818233	0.718329	0.603253	0.392151	2.133137	0.256827	
0.467695	0.798651	0.743375	0.602104	0.381434	2.120882	0.252431	
0.469805	0.789782	0.754170	0.601754	0.377151	2.118434	0.250271	
0.474044	0.786887	0.758363	0.601413	0.375138	2.114539	0.249712	
0.480647	0.778146	0.769352	0.600967	0.370674	2.110554	0.247643	
0.488103	0.740377	0.815409	0.600276	0.354141	2.109195	0.237825	
0.494706	0.711304	0.851772	0.599931	0.341901	2.111858	0.229971	
0.498945	0.707274	0.855356	0.599853	0.341120	2.117403	0.228641	
0.501055	0.700870	0.862916	0.599765	0.338823	2.120504	0.226783	
0.505294	0.696871	0.868076	0.599684	0.337118	2.121103	0.225681	
0.511897	0.667445	0.901365	0.599335	0.328199	2.146718	0.216603	
0.519353	0.628788	0.946530	0.598623	0.316952	2.188313	0.204308	
0.525956	0.618986	0.956356	0.598158	0.315091	2.206395	0.200894	
0.530195	0.615371	0.958793	0.597795	0.314945	2.216927	0.199489	
0.532305	0.606119	0.969542	0.597433	0.312554	2.230667	0.196408	
0.536544	0.585591	0.991840	0.596252	0.308216	2.269667	0.189279	
0.543147	0.552030	1.026040	0.593268	0.302690	2.351673	0.177119	
0.550603	0.534420	1.044415	0.591446	0.299972	2.400703	0.170639	
0.557206	0.524049	1.052109	0.589525	0.299481	2.439500	0.166561	
0.561445	0.507116	1.067059	0.586559	0.297854	2.500487	0.160066	
0.563555	0.494189	1.080608	0.584526	0.295990	2.544558	0.155248	
0.567794	0.472073	1.100446	0.579866	0.294030	2.636663	0.146714	
0.574397	0.456605	1.112452	0.575983	0.293448	2.713631	0.140581	
0.581853	0.444477	1.121053	0.572371	0.293070	2.778121	0.135778	
0.588456	0.420274	1.136777	0.563925	0.292373	2.919746	0.126201	
0.592695	0.400178	1.150176	0.556496	0.291797	3.050756	0.118302	
0.594805	0.391843	1.156193	0.553374	0.291469	3.107527	0.115069	
0.599044	0.382684	1.160428	0.549231	0.291572	3.179009	0.111429	
0.605647	0.376114	1.161882	0.545860	0.291989	3.235272	0.108786	
0.613103	0.354024	1.168285	0.533642	0.292040	3.426187	0.100176	
0.619706	0.329810	1.172828	0.519072	0.292241	3.666206	0.090872	
0.623945	0.320467	1.172586	0.512826	0.292512	3.771906	0.087292	
0.626055	0.317979	1.172420	0.511104	0.292562	3.800020	0.086355	
0.630294	0.315367	1.171474	0.509111	0.292714	3.832973	0.085343	
0.636897	0.301949	1.165834	0.498021	0.292822	3.996748	0.080328	
0.644353	0.279390	1.152952	0.478335	0.292639	4.303334	0.072081	
0.650956	0.268335	1.142975	0.467833	0.292558	4.470795	0.068124	
0.655195	0.266246	1.139209	0.465307	0.292540	4.505827	0.067369	
0.657305	0.264425	1.136949	0.463330	0.292425	4.533639	0.066734	
0.661544	0.258131	1.127938	0.456210	0.292007	4.633826	0.064544	
0.668147	0.241952	1.098715	0.436483	0.290444	4.907552	0.059031	
0.675603	0.230825	1.074257	0.422247	0.289058	5.112183	0.055330	
0.682206	0.227576	1.064162	0.417227	0.288369	5.169941	0.054288	
0.686445	0.223915	1.052173	0.411335	0.287391	5.235497	0.053125	
0.688555	0.220580	1.041631	0.406183	0.286519	5.294294	0.052083	
0.692794	0.212354	1.012367	0.392856	0.284037	5.446167	0.049530	
0.699397	0.203447	0.975399	0.377566	0.280785	5.615288	0.046826	
0.706853	0.200450	0.960423	0.371727	0.279279	5.668204	0.045950	
0.713456	0.196005	0.935404	0.362220	0.276470	5.734499	0.044712	
0.717695	0.190334	0.902431	0.350335	0.272833	5.826140	0.043126	
0.719805	0.187448	0.884622	0.344185	0.270840	5.869148	0.042340	
0.724044	0.182832	0.853543	0.333825	0.267225	5.936040	0.041102	
0.730647	0.180761	0.837390	0.328543	0.265166	5.954588	0.040588	
0.738103	0.177803	0.812218	0.320296	0.261648	5.969845	0.039893	
0.744706	0.171768	0.759368	0.303992	0.254468	6.007652	0.038458	
0.748945	0.167930	0.722907	0.293318	0.249439	6.020730	0.037582	
0.751055	0.166778	0.711104	0.289900	0.247732	6.022632	0.037325	
0.755294	0.165802	0.699882	0.286558	0.245951	6.012168	0.037144	
0.761897	0.164608	0.684941	0.282003	0.243391	5.995829	0.036933	
0.769353	0.160002	0.630157	0.266467	0.234699	5.946114	0.036072	
0.775956	0.155818	0.576591	0.251989	0.226088	5.879139	0.035347	
0.780195	0.154640	0.559523	0.247330	0.223124	5.846803	0.035181	
0.782305	0.154403	0.555507	0.246148	0.222325	5.834071	0.035166	
0.786544	0.153999	0.548395	0.244024	0.220867	5.808657	0.035150	
0.793147	0.151357	0.507946	0.233117	0.213591	5.716378	0.034833	
0.800603	0.147580	0.447328	0.217436	0.202671	5.562501	0.034440	
0.807206	0.145968	0.418718	0.210003	0.197207	5.471138	0.034350	
0.811445	0.145647	0.411578	0.207935	0.195599	5.437276	0.034380	
0.813555	0.145318	0.405162	0.206201	0.194274	5.412714	0.034380	
0.817794	0.144160	0.383373	0.200545	0.189951	5.336426	0.034350	
0.824397	0.141503	0.332028	0.187611	0.179812	5.146123	0.034335	
0.831853	0.139749	0.295743	0.178509	0.172397	4.996843	0.034410	
0.838456	0.139162	0.281891	0.174799	0.169270	4.928280	0.034501	
0.842695	0.138534	0.267619	0.171108	0.166147	4.857698	0.034592	
0.844805	0.138020	0.256178	0.168239	0.163710	4.804473	0.034652	
0.849044	0.136785	0.228306	0.161327	0.157762	4.672835	0.034818	
0.855647	0.135402	0.195678	0.153243	0.150651	4.506331	0.035090	
0.863103	0.134858	0.181652	0.149610	0.147385	4.427120	0.035256	
0.869706	0.134243	0.165688	0.145491	0.143648	4.337113	0.035452	
0.873945	0.133506	0.146913	0.140798	0.139357	4.230256	0.035694	
0.876055	0.133127	0.137098	0.138354	0.137103	4.173549	0.035830	
0.880294	0.132488	0.120187	0.134125	0.133168	4.073428	0.036087	
0.886897	0.132121	0.109919	0.131478	0.130680	4.009434	0.036268	
0.894353	0.131815	0.101078	0.129140	0.128466	3.950278	0.036449	
0.900956	0.131202	0.083729	0.124683	0.124223	3.838106	0.036797	
0.905195	0.130765	0.071184	0.121471	0.121140	3.755344	0.037069	
0.907305	0.130618	0.066889	0.120357	0.120065	3.725081	0.037174	
0.911544	0.130464	0.062216	0.119116	0.118864	3.694681	0.037280	
0.918147	0.130389	0.059773	0.118430	0.118197	3.675091	0.037356	
0.925603	0.130073	0.050105	0.115839	0.115676	3.606167	0.037612	
0.932206	0.129700	0.038582	0.112755	0.112658	3.521272	0.037945	
0.936445	0.129563	0.034239	0.111568	0.111492	3.490948	0.038066	
0.938555	0.129539	0.033449	0.111340	0.111268	3.483962	0.038096	
0.942794	0.129532	0.033221	0.111253	0.111182	3.480791	0.038111	
0.949397	0.129442	0.030302	0.110424	0.110364	3.458984	0.038202	
0.956853	0.129208	0.022667	0.108277	0.108243	3.396626	0.038473	
0.963456	0.129071	0.018074	0.106970	0.106949	3.362188	0.038624	
0.967695	0.129059	0.017648	0.106839	0.106819	3.356194	0.038655	
0.969805	0.129060	0.017646	0.106838	0.106818	3.356222	0.038655	
0.974044	0.129050	0.017276	0.106740	0.106720	3.355717	0.038655	
0.980647	0.128955	0.013841	0.105767	0.105755	3.326664	0.038791	
0.988103	0.128848	0.009826	0.104631	0.104625	3.294706	0.038942	
0.994706	0.128826	0.008853	0.104377	0.104372	3.285720	0.038987	
0.998945	0.128831	0.009020	0.104433	0.104428	3.288611	0.038972	
