TITLE = "DG1DMBX16-P5RK5w1000iv80"
VARIABLES = "x" "Density" "Velocity in x" "Energy" "Pressure" "Temperature" "Fugacity"
ZONE T = "Final Time 0.10"
I = 96, J = 1, K = 1, F = POINT

0.002110	1.000000	0.000000	1.000000	1.000000	3.999999	0.282095	
0.010587	1.000000	0.000000	1.000000	1.000000	4.000000	0.282095	
0.023793	1.000000	-0.000000	1.000000	1.000000	4.000001	0.282095	
0.038707	1.000000	0.000000	1.000000	1.000000	3.999999	0.282095	
0.051913	1.000000	0.000000	1.000000	1.000000	4.000000	0.282095	
0.060390	1.000000	-0.000001	1.000002	1.000002	4.000005	0.282095	
0.064610	1.000000	-0.000001	1.000001	1.000001	4.000003	0.282095	
0.073087	1.000000	0.000001	0.999998	0.999998	3.999995	0.282095	
0.086293	1.000000	-0.000000	1.000000	1.000000	4.000001	0.282095	
0.101207	1.000001	-0.000001	1.000002	1.000002	4.000004	0.282095	
0.114413	0.999998	0.000005	0.999994	0.999994	3.999983	0.282095	
0.122890	0.999999	-0.000000	1.000001	1.000001	4.000007	0.282094	
0.127110	1.000004	-0.000009	1.000013	1.000013	4.000037	0.282094	
0.135587	1.000002	-0.000003	1.000003	1.000003	4.000005	0.282095	
0.148793	0.999996	0.000010	0.999987	0.999987	3.999964	0.282095	
0.163707	1.000005	-0.000013	1.000019	1.000019	4.000056	0.282094	
0.176913	1.000003	-0.000005	1.000000	1.000000	3.999987	0.282096	
0.185390	0.999980	0.000051	0.999934	0.999934	3.999816	0.282096	
0.189610	0.999981	0.000049	0.999949	0.999949	3.999872	0.282094	
0.198087	1.000016	-0.000049	1.000065	1.000065	4.000196	0.282092	
0.211293	1.000012	-0.000021	1.000020	1.000020	4.000034	0.282097	
0.226207	0.999955	0.000111	0.999858	0.999858	3.999612	0.282096	
0.239413	1.000046	-0.000138	1.000204	1.000204	4.000630	0.282086	
0.247890	1.000132	-0.000300	1.000370	1.000370	4.000953	0.282098	
0.252110	1.000080	-0.000192	1.000186	1.000186	4.000427	0.282102	
0.260587	0.999886	0.000322	0.999571	0.999571	3.998739	0.282107	
0.273793	0.999792	0.000526	0.999298	0.999298	3.998024	0.282106	
0.288707	0.998245	0.004760	0.993616	0.993605	3.981404	0.282257	
0.301913	0.991725	0.021699	0.972072	0.971838	3.919789	0.282608	
0.310390	0.983302	0.042928	0.946582	0.945676	3.846940	0.282849	
0.314610	0.978018	0.056261	0.931232	0.929684	3.802317	0.282975	
0.323087	0.965139	0.088305	0.895992	0.892229	3.697827	0.283166	
0.336293	0.940504	0.148917	0.835052	0.824623	3.507156	0.283340	
0.351207	0.908217	0.227944	0.765855	0.742260	3.269084	0.283401	
0.364413	0.877154	0.303693	0.709298	0.668848	3.050083	0.283364	
0.372890	0.856289	0.354484	0.676284	0.622484	2.907823	0.283310	
0.377110	0.845747	0.380202	0.660996	0.599868	2.837103	0.283288	
0.385587	0.824135	0.432751	0.632570	0.555401	2.695680	0.283197	
0.398793	0.789741	0.516409	0.594618	0.489315	2.478356	0.283027	
0.413707	0.750376	0.611948	0.561092	0.420592	2.242032	0.282737	
0.426913	0.716328	0.694452	0.539553	0.366823	2.048354	0.282380	
0.435390	0.695861	0.743885	0.529569	0.337037	1.937383	0.282059	
0.439610	0.686468	0.766577	0.525648	0.323950	1.887632	0.281895	
0.448087	0.669522	0.807033	0.519649	0.301618	1.801991	0.281393	
0.461293	0.651814	0.848447	0.514751	0.280143	1.719158	0.280473	
0.476207	0.645421	0.862643	0.513568	0.273422	1.694535	0.279732	
0.489413	0.645218	0.862412	0.513642	0.273700	1.696792	0.279458	
0.497890	0.644430	0.863352	0.513442	0.273270	1.696195	0.279166	
0.502110	0.644492	0.863504	0.513506	0.273227	1.695765	0.279228	
0.510587	0.642602	0.863299	0.513101	0.273640	1.703324	0.277791	
0.523793	0.640170	0.863894	0.512086	0.273203	1.707065	0.276437	
0.538707	0.625988	0.868879	0.509336	0.273041	1.744707	0.267380	
0.551913	0.534973	0.883440	0.482883	0.274119	2.049588	0.210826	
0.560390	0.429612	0.903397	0.448939	0.273630	2.547694	0.151854	
0.564610	0.375008	0.911547	0.429630	0.273829	2.920779	0.123799	
0.573087	0.285378	0.920415	0.394910	0.274029	3.840921	0.082154	
0.586293	0.209398	0.906383	0.360412	0.274399	5.241680	0.051601	
0.601207	0.179661	0.882178	0.343831	0.273922	6.098621	0.041045	
0.614413	0.172596	0.871399	0.339445	0.273916	6.348135	0.038649	
0.622890	0.171021	0.867038	0.338465	0.274182	6.412838	0.038102	
0.627110	0.170851	0.867049	0.338202	0.273981	6.414484	0.038059	
0.635587	0.170880	0.864747	0.338489	0.274598	6.427870	0.038026	
0.648793	0.170984	0.863653	0.339210	0.275442	6.443712	0.038002	
0.663707	0.170432	0.866331	0.338821	0.274864	6.451004	0.037858	
0.676913	0.170693	0.867385	0.338970	0.274759	6.438667	0.037953	
0.685390	0.171419	0.867663	0.339461	0.274936	6.415539	0.038183	
0.689610	0.171632	0.867370	0.339669	0.275107	6.411544	0.038242	
0.698087	0.171177	0.870398	0.340059	0.275217	6.431192	0.038082	
0.711293	0.169426	0.862412	0.334855	0.271849	6.418109	0.037731	
0.726207	0.170521	0.865444	0.339639	0.275780	6.469123	0.037825	
0.739413	0.157459	0.637595	0.258263	0.226257	5.747716	0.037055	
0.747890	0.136205	0.211492	0.145406	0.142360	4.180730	0.037583	
0.752110	0.117271	-0.110861	0.089975	0.089254	3.044377	0.037920	
0.760587	0.124352	-0.011633	0.096915	0.096907	3.117174	0.039737	
0.773793	0.126681	0.032932	0.105564	0.105495	3.331040	0.039160	
0.788707	0.123808	-0.021967	0.096718	0.096688	3.123806	0.039521	
0.801913	0.126004	0.016414	0.102136	0.102119	3.241776	0.039484	
0.810390	0.125310	0.010814	0.102112	0.102105	3.259262	0.039161	
0.814610	0.123762	-0.024141	0.096860	0.096824	3.129340	0.039472	
0.823087	0.125099	0.000921	0.099902	0.099902	3.194323	0.039490	
0.836293	0.125077	0.001955	0.100356	0.100355	3.209393	0.039390	
0.851207	0.124911	-0.001919	0.099704	0.099704	3.192785	0.039440	
0.864413	0.125107	0.002019	0.100276	0.100275	3.206070	0.039420	
0.872890	0.124961	-0.000236	0.100026	0.100026	3.201820	0.039400	
0.877110	0.124882	-0.002452	0.099646	0.099646	3.191681	0.039438	
0.885587	0.125031	0.000484	0.100053	0.100053	3.200915	0.039428	
0.898793	0.124998	0.000033	0.100011	0.100011	3.200400	0.039421	
0.913707	0.124995	-0.000131	0.099978	0.099978	3.199434	0.039426	
0.926913	0.125011	0.000224	0.100033	0.100033	3.200762	0.039423	
0.935390	0.124986	-0.000199	0.099976	0.099976	3.199590	0.039422	
0.939610	0.124992	-0.000203	0.099967	0.099967	3.199148	0.039427	
0.948087	0.125005	0.000095	0.100014	0.100014	3.200302	0.039424	
0.961293	0.124998	-0.000023	0.099997	0.099997	3.199936	0.039424	
0.976207	0.125000	0.000002	0.100000	0.100000	3.200002	0.039424	
0.989413	0.125001	0.000016	0.100002	0.100002	3.200049	0.039424	
0.997890	0.124998	-0.000029	0.099994	0.099994	3.199876	0.039424	
