TITLE = "DG1DMBX16-P4RK3w5000iv20"
VARIABLES = "x" "Density" "Velocity in x" "Energy" "Pressure" "Temperature" "Fugacity"
ZONE T = "Final Time 0.10"
I = 80, J = 1, K = 1, F = POINT

0.002932	0.997523	-0.000001	0.946205	0.946205	3.794215	0.288926	
0.014423	0.997523	0.000000	0.946204	0.946204	3.794213	0.288926	
0.031250	0.997523	-0.000000	0.946204	0.946204	3.794214	0.288926	
0.048077	0.997524	-0.000001	0.946205	0.946205	3.794215	0.288926	
0.059568	0.997522	0.000004	0.946200	0.946200	3.794202	0.288926	
0.065432	0.997524	-0.000002	0.946206	0.946206	3.794219	0.288926	
0.076923	0.997524	-0.000002	0.946207	0.946207	3.794221	0.288926	
0.093750	0.997522	0.000004	0.946199	0.946199	3.794200	0.288926	
0.110577	0.997526	-0.000007	0.946213	0.946213	3.794239	0.288926	
0.122068	0.997525	-0.000003	0.946205	0.946205	3.794213	0.288927	
0.127932	0.997513	0.000025	0.946175	0.946175	3.794138	0.288926	
0.139423	0.997526	-0.000007	0.946212	0.946212	3.794237	0.288926	
0.156250	0.997527	-0.000008	0.946214	0.946214	3.794239	0.288927	
0.173077	0.997506	0.000041	0.946154	0.946154	3.794078	0.288926	
0.184568	0.997564	-0.000108	0.946334	0.946334	3.794579	0.288924	
0.190432	0.997551	-0.000053	0.946269	0.946269	3.794367	0.288929	
0.201923	0.997481	0.000102	0.946079	0.946079	3.793874	0.288927	
0.218750	0.997555	-0.000080	0.946308	0.946308	3.794510	0.288924	
0.235577	0.997539	-0.000031	0.946216	0.946216	3.794202	0.288931	
0.247068	0.997250	0.000667	0.945459	0.945458	3.792261	0.288922	
0.252932	0.997608	-0.000223	0.946478	0.946478	3.794989	0.288922	
0.264423	0.997737	-0.000515	0.946819	0.946819	3.795866	0.288925	
0.281250	0.997233	0.000703	0.945311	0.945311	3.791736	0.288937	
0.298077	0.997722	-0.000486	0.946957	0.946957	3.796475	0.288898	
0.309568	0.998657	-0.002674	0.949147	0.949144	3.801680	0.288971	
0.315432	0.996888	0.001458	0.944304	0.944303	3.789002	0.288941	
0.326923	0.996461	0.002593	0.943155	0.943151	3.786003	0.288932	
0.343750	0.998947	-0.003489	0.950614	0.950608	3.806441	0.288874	
0.360577	0.997506	0.000195	0.945303	0.945303	3.790666	0.289056	
0.372068	0.992038	0.012354	0.932166	0.932090	3.758285	0.288708	
0.377932	0.995883	0.005582	0.940762	0.940747	3.778542	0.289049	
0.389423	1.002587	-0.013244	0.961725	0.961637	3.836623	0.288784	
0.406250	0.994748	0.007960	0.936123	0.936092	3.764137	0.289271	
0.423077	0.946053	0.123510	0.813705	0.806489	3.409913	0.289047	
0.434568	0.892640	0.246248	0.711425	0.684361	3.066681	0.287586	
0.440432	0.867428	0.310050	0.666974	0.625281	2.883377	0.288209	
0.451923	0.809692	0.456413	0.589686	0.505351	2.496510	0.289120	
0.468750	0.699555	0.703574	0.511263	0.338117	1.933328	0.283853	
0.485577	0.625021	0.896305	0.491621	0.240562	1.539546	0.284199	
0.497068	0.644460	0.868551	0.497319	0.254235	1.577971	0.289448	
0.502932	0.612071	0.915225	0.493347	0.237001	1.548844	0.277474	
0.514423	0.632076	0.893204	0.492173	0.240034	1.519017	0.289343	
0.531250	0.385196	0.907619	0.407098	0.248441	2.579890	0.135303	
0.548077	0.190992	0.873718	0.300440	0.227540	4.765420	0.049362	
0.559568	0.186537	0.674657	0.267245	0.224792	4.820331	0.047935	
0.565432	0.185198	0.675057	0.250041	0.207843	4.489099	0.049315	
0.576923	0.158202	0.598373	0.222572	0.194250	4.911425	0.040275	
0.593750	0.142896	0.332809	0.159690	0.151776	4.248572	0.039113	
0.610577	0.123943	-0.054459	0.092968	0.092784	2.994418	0.040410	
0.622068	0.117295	-0.074671	0.088977	0.088650	3.023146	0.038061	
0.627932	0.132814	0.087369	0.111782	0.111276	3.351328	0.040932	
0.639423	0.126054	0.031306	0.105169	0.105108	3.335308	0.038942	
0.656250	0.123364	-0.029938	0.094493	0.094438	3.062073	0.039775	
0.673077	0.126282	0.021937	0.102817	0.102786	3.255755	0.039486	
0.684568	0.125601	0.016188	0.101335	0.101319	3.226696	0.039449	
0.690432	0.123342	-0.033987	0.095130	0.095059	3.082780	0.039634	
0.701923	0.124980	0.001009	0.099422	0.099422	3.182016	0.039529	
0.718750	0.125237	0.004595	0.099998	0.099997	3.193856	0.039537	
0.735577	0.124644	-0.005695	0.098592	0.098590	3.163877	0.039536	
0.747068	0.125164	0.002893	0.099766	0.099765	3.188316	0.039548	
0.752932	0.125309	0.006118	0.100209	0.100207	3.198718	0.039529	
0.764423	0.124830	-0.002365	0.099032	0.099032	3.173346	0.039535	
0.781250	0.125003	0.000469	0.099432	0.099432	3.181734	0.039538	
0.798077	0.124991	0.000377	0.099416	0.099416	3.181542	0.039535	
0.809568	0.124888	-0.001403	0.099174	0.099174	3.176401	0.039535	
0.815432	0.124986	0.000194	0.099375	0.099375	3.180369	0.039541	
0.826923	0.124993	0.000374	0.099422	0.099422	3.181684	0.039535	
0.843750	0.124959	-0.000213	0.099332	0.099332	3.179651	0.039537	
0.860577	0.124979	0.000119	0.099381	0.099381	3.180745	0.039536	
0.872068	0.124976	0.000095	0.099375	0.099375	3.180635	0.039536	
0.877932	0.124960	-0.000208	0.099336	0.099336	3.179759	0.039537	
0.889423	0.124973	0.000032	0.099368	0.099368	3.180450	0.039537	
0.906250	0.124972	0.000002	0.099364	0.099364	3.180371	0.039536	
0.923077	0.124971	-0.000017	0.099361	0.099361	3.180312	0.039536	
0.934568	0.124973	0.000033	0.099368	0.099368	3.180451	0.039537	
0.940432	0.124972	0.000001	0.099364	0.099364	3.180382	0.039536	
0.951923	0.124971	-0.000009	0.099362	0.099362	3.180328	0.039536	
0.968750	0.124972	0.000005	0.099364	0.099364	3.180379	0.039536	
0.985577	0.124971	-0.000003	0.099363	0.099363	3.180352	0.039536	
0.997068	0.124971	-0.000001	0.099363	0.099363	3.180355	0.039536	
