TITLE = "DG1DMBX16-P4RK3w10000iv80"
VARIABLES = "x" "Density" "Velocity in x" "Energy" "Pressure" "Temperature" "Fugacity"
ZONE T = "Final Time 0.10"
I = 80, J = 1, K = 1, F = POINT

0.002932	1.000000	-0.000001	1.000001	1.000001	4.000003	0.282095	
0.014423	1.000000	0.000001	0.999999	0.999999	3.999998	0.282095	
0.031250	1.000000	-0.000000	1.000000	1.000000	4.000001	0.282095	
0.048077	1.000000	-0.000001	1.000001	1.000001	4.000002	0.282095	
0.059568	0.999997	0.000007	0.999992	0.999992	3.999979	0.282095	
0.065432	1.000001	-0.000004	1.000005	1.000005	4.000013	0.282095	
0.076923	1.000001	-0.000003	1.000004	1.000004	4.000012	0.282095	
0.093750	0.999997	0.000007	0.999991	0.999991	3.999975	0.282095	
0.110577	1.000006	-0.000013	1.000018	1.000018	4.000050	0.282095	
0.122068	1.000000	0.000002	0.999994	0.999994	3.999978	0.282095	
0.127932	0.999982	0.000042	0.999950	0.999950	3.999870	0.282094	
0.139423	1.000007	-0.000017	1.000021	1.000021	4.000055	0.282095	
0.156250	1.000003	-0.000006	1.000009	1.000009	4.000024	0.282095	
0.173077	0.999975	0.000061	0.999923	0.999923	3.999795	0.282095	
0.184568	1.000078	-0.000205	1.000247	1.000247	4.000673	0.282093	
0.190432	1.000024	-0.000041	1.000061	1.000061	4.000147	0.282096	
0.201923	0.999930	0.000172	0.999784	0.999784	3.999416	0.282096	
0.218750	1.000066	-0.000166	1.000215	1.000215	4.000596	0.282093	
0.235577	0.999983	0.000043	0.999912	0.999912	3.999718	0.282100	
0.247068	0.999598	0.000993	0.998867	0.998867	3.997072	0.282085	
0.252932	1.000241	-0.000581	1.000695	1.000695	4.001813	0.282099	
0.264423	1.000283	-0.000705	1.000877	1.000877	4.002375	0.282091	
0.281250	0.999528	0.001151	0.998512	0.998511	3.995930	0.282105	
0.298077	1.000484	-0.001153	1.001635	1.001634	4.004597	0.282069	
0.309568	1.001379	-0.003331	1.003778	1.003772	4.009561	0.282147	
0.315432	0.998665	0.003033	0.996163	0.996159	3.989959	0.282073	
0.326923	0.998741	0.003201	0.996073	0.996068	3.989294	0.282117	
0.343750	1.002144	-0.005315	1.006833	1.006819	4.018658	0.282043	
0.360577	0.999187	0.002060	0.996814	0.996812	3.990495	0.282201	
0.372068	0.993086	0.015541	0.981807	0.981687	3.954088	0.281766	
0.377932	0.999518	0.003732	0.996716	0.996709	3.988757	0.282356	
0.389423	1.007000	-0.018157	1.021852	1.021686	4.058332	0.282021	
0.406250	0.995422	0.011762	0.985588	0.985519	3.960206	0.282211	
0.423077	0.942405	0.142553	0.844315	0.834739	3.543016	0.282473	
0.434568	0.887500	0.268443	0.737473	0.705496	3.179698	0.280802	
0.440432	0.863521	0.333432	0.691039	0.643037	2.978672	0.282284	
0.451923	0.806531	0.485793	0.611068	0.515899	2.558607	0.284475	
0.468750	0.695144	0.732186	0.528451	0.342118	1.968619	0.279524	
0.485577	0.637166	0.894403	0.514637	0.259785	1.630877	0.281492	
0.497068	0.663476	0.864275	0.519299	0.271501	1.636837	0.292582	
0.502932	0.626502	0.879487	0.509142	0.266844	1.703705	0.270801	
0.514423	0.663276	0.849354	0.515267	0.276023	1.664602	0.290044	
0.531250	0.371652	0.862091	0.411541	0.273435	2.942910	0.122229	
0.548077	0.133832	0.875137	0.322768	0.271519	8.115198	0.026506	
0.559568	0.151958	0.822944	0.331184	0.279729	7.363334	0.031594	
0.565432	0.203377	0.888167	0.354031	0.273814	5.385354	0.049445	
0.576923	0.173070	0.870735	0.330129	0.264520	6.113580	0.039491	
0.593750	0.166126	0.924997	0.364988	0.293917	7.076979	0.035232	
0.610577	0.162758	0.616141	0.227238	0.196345	4.825426	0.041802	
0.622068	0.123540	-0.366499	0.070511	0.062214	2.014384	0.049109	
0.627932	0.092169	-0.390019	0.077824	0.070814	3.073210	0.029663	
0.639423	0.137461	0.190279	0.120481	0.117992	3.433467	0.041854	
0.656250	0.120739	-0.061231	0.096302	0.096076	3.182933	0.038182	
0.673077	0.126013	0.010677	0.098904	0.098897	3.139245	0.040126	
0.684568	0.130028	0.077366	0.111832	0.111443	3.428296	0.039621	
0.690432	0.122445	-0.041573	0.096828	0.096722	3.159690	0.038864	
0.701923	0.123861	-0.017935	0.096817	0.096797	3.125992	0.039525	
0.718750	0.125896	0.015463	0.102440	0.102425	3.254260	0.039374	
0.735577	0.124341	-0.011469	0.098274	0.098266	3.161164	0.039456	
0.747068	0.124885	-0.003023	0.099727	0.099726	3.194189	0.039423	
0.752932	0.125980	0.017330	0.102405	0.102386	3.250863	0.039421	
0.764423	0.124747	-0.004105	0.099412	0.099411	3.187588	0.039421	
0.781250	0.125033	0.000412	0.100073	0.100073	3.201470	0.039425	
0.798077	0.125065	0.001191	0.100158	0.100157	3.203369	0.039424	
0.809568	0.124810	-0.003203	0.099575	0.099574	3.191216	0.039418	
0.815432	0.125026	0.000339	0.100017	0.100017	3.199873	0.039433	
0.826923	0.125046	0.000802	0.100124	0.100124	3.202781	0.039421	
0.843750	0.124974	-0.000448	0.099932	0.099932	3.198497	0.039425	
0.860577	0.125016	0.000265	0.100040	0.100040	3.200872	0.039424	
0.872068	0.125005	0.000137	0.100016	0.100016	3.200376	0.039423	
0.877932	0.124978	-0.000413	0.099943	0.099943	3.198753	0.039425	
0.889423	0.125005	0.000084	0.100012	0.100012	3.200263	0.039424	
0.906250	0.124999	-0.000010	0.099998	0.099998	3.199961	0.039424	
0.923077	0.124999	-0.000021	0.099997	0.099997	3.199944	0.039424	
0.934568	0.125004	0.000062	0.100008	0.100008	3.200171	0.039424	
0.940432	0.124999	-0.000012	0.099999	0.099999	3.199983	0.039424	
0.951923	0.124999	-0.000013	0.099998	0.099998	3.199955	0.039424	
0.968750	0.125000	0.000008	0.100001	0.100001	3.200025	0.039424	
0.985577	0.125000	-0.000005	0.099999	0.099999	3.199983	0.039424	
0.997068	0.125000	0.000001	0.100000	0.100000	3.199994	0.039424	
