TITLE = "DG1DMBX16-P5RK5w10iv80"
VARIABLES = "x" "Density" "Velocity in x" "Energy" "Pressure" "Temperature" "Fugacity"
ZONE T = "Final Time 0.10"
I = 96, J = 1, K = 1, F = POINT

0.002110	0.999999	0.000005	0.999984	0.999984	3.999938	0.282097	
0.010587	0.999999	0.000007	0.999976	0.999976	3.999910	0.282098	
0.023793	0.999998	0.000012	0.999959	0.999959	3.999843	0.282100	
0.038707	0.999996	0.000024	0.999925	0.999925	3.999715	0.282104	
0.051913	0.999994	0.000041	0.999873	0.999873	3.999519	0.282110	
0.060390	0.999991	0.000057	0.999826	0.999826	3.999339	0.282116	
0.064610	0.999987	0.000071	0.999793	0.999793	3.999227	0.282118	
0.073087	0.999984	0.000097	0.999717	0.999717	3.998934	0.282128	
0.086293	0.999972	0.000161	0.999543	0.999543	3.998283	0.282147	
0.101207	0.999947	0.000284	0.999224	0.999224	3.997106	0.282182	
0.114413	0.999916	0.000456	0.998783	0.998783	3.995466	0.282231	
0.122890	0.999876	0.000623	0.998384	0.998384	3.994028	0.282271	
0.127110	0.999858	0.000723	0.998142	0.998142	3.993132	0.282297	
0.135587	0.999812	0.000963	0.997560	0.997560	3.990988	0.282360	
0.148793	0.999689	0.001513	0.996303	0.996301	3.986446	0.282486	
0.163707	0.999478	0.002469	0.994188	0.994185	3.978817	0.282697	
0.176913	0.999175	0.003753	0.991461	0.991454	3.969089	0.282958	
0.185390	0.998887	0.004897	0.989142	0.989130	3.960931	0.283167	
0.189610	0.998753	0.005543	0.987804	0.987789	3.956088	0.283302	
0.198087	0.998344	0.007143	0.984654	0.984629	3.945051	0.283582	
0.211293	0.997467	0.010483	0.978327	0.978272	3.923024	0.284127	
0.226207	0.996042	0.015817	0.968651	0.968526	3.889500	0.284942	
0.239413	0.994133	0.022429	0.957333	0.957083	3.850926	0.285816	
0.247890	0.992608	0.027775	0.948505	0.948122	3.820734	0.286503	
0.252110	0.991730	0.030779	0.943638	0.943168	3.804135	0.286874	
0.260587	0.989527	0.037781	0.932775	0.932068	3.767733	0.287616	
0.273793	0.985324	0.051115	0.912981	0.911694	3.701091	0.288961	
0.288707	0.978926	0.070362	0.886353	0.883930	3.611835	0.290610	
0.301913	0.971432	0.091723	0.859100	0.855013	3.520633	0.292097	
0.310390	0.965951	0.107499	0.840032	0.834451	3.455458	0.293175	
0.314610	0.962510	0.116253	0.830105	0.823601	3.422719	0.293525	
0.323087	0.955361	0.135144	0.809431	0.800706	3.352475	0.294381	
0.336293	0.942598	0.168284	0.775837	0.762490	3.235695	0.295643	
0.351207	0.924603	0.211912	0.736879	0.716119	3.098060	0.296371	
0.364413	0.906280	0.255541	0.702713	0.673122	2.970926	0.296648	
0.372890	0.892929	0.285935	0.681573	0.645070	2.889682	0.296358	
0.377110	0.884800	0.302624	0.671282	0.630766	2.851567	0.295616	
0.385587	0.870293	0.335659	0.651552	0.602526	2.769302	0.295057	
0.398793	0.844299	0.391038	0.623555	0.559004	2.648373	0.292706	
0.413707	0.810780	0.458936	0.596664	0.511280	2.522408	0.288019	
0.426913	0.780420	0.520414	0.577723	0.472043	2.419427	0.283072	
0.435390	0.755475	0.564927	0.568002	0.447450	2.369109	0.276919	
0.439610	0.745801	0.585003	0.563820	0.436203	2.339518	0.275096	
0.448087	0.724575	0.625620	0.556930	0.415130	2.291717	0.270040	
0.461293	0.685057	0.694907	0.549509	0.384103	2.242750	0.258084	
0.476207	0.642592	0.769028	0.545129	0.355113	2.210506	0.243845	
0.489413	0.601173	0.835785	0.543735	0.333764	2.220751	0.227601	
0.497890	0.569965	0.885549	0.543434	0.319952	2.245413	0.214598	
0.502110	0.566612	0.890227	0.543347	0.318826	2.250749	0.213082	
0.510587	0.535016	0.936169	0.543040	0.308593	2.307170	0.198725	
0.523793	0.491903	0.996951	0.541611	0.297157	2.416384	0.178534	
0.538707	0.446264	1.051926	0.537110	0.290204	2.601189	0.156110	
0.551913	0.403273	1.100532	0.529478	0.285262	2.829466	0.135261	
0.560390	0.379680	1.119066	0.522428	0.284690	2.999270	0.123690	
0.564610	0.368863	1.123585	0.518173	0.285339	3.094255	0.118307	
0.573087	0.341816	1.146943	0.508350	0.283524	3.317845	0.105874	
0.586293	0.308688	1.152811	0.489545	0.284426	3.685605	0.090717	
0.601207	0.273334	1.144743	0.463608	0.284515	4.163623	0.075576	
0.614413	0.246875	1.116119	0.437511	0.283742	4.597344	0.064960	
0.622890	0.232619	1.085131	0.419603	0.282648	4.860268	0.059531	
0.627110	0.224759	1.071470	0.410400	0.281383	5.007713	0.056666	
0.635587	0.212170	1.032966	0.391772	0.278577	5.251976	0.052233	
0.648793	0.195449	0.959383	0.362239	0.272292	5.572645	0.046712	
0.663707	0.179536	0.864690	0.329038	0.261919	5.835464	0.041931	
0.676913	0.168513	0.771350	0.300328	0.250197	5.938951	0.039012	
0.685390	0.162319	0.709256	0.282365	0.241538	5.952183	0.037537	
0.689610	0.159297	0.678572	0.273604	0.236929	5.949377	0.036846	
0.698087	0.154501	0.615197	0.256422	0.227185	5.881783	0.035942	
0.711293	0.147681	0.517426	0.230729	0.210959	5.713937	0.034856	
0.726207	0.141507	0.411210	0.203752	0.191788	5.421291	0.034289	
0.739413	0.137149	0.323857	0.182090	0.174898	5.100952	0.034260	
0.747890	0.134746	0.272570	0.169528	0.164523	4.883945	0.034400	
0.752110	0.133754	0.249075	0.163741	0.159592	4.772693	0.034542	
0.760587	0.131989	0.205278	0.153024	0.150243	4.553175	0.034899	
0.773793	0.129739	0.147850	0.138951	0.137533	4.240295	0.035547	
0.788707	0.128020	0.099027	0.126787	0.126159	3.941851	0.036379	
0.801913	0.126970	0.067830	0.118879	0.118587	3.735911	0.037062	
0.810390	0.126483	0.052792	0.114980	0.114804	3.630647	0.037451	
0.814610	0.126318	0.046658	0.113331	0.113194	3.584397	0.037643	
0.823087	0.125979	0.035919	0.110494	0.110413	3.505745	0.037961	
0.836293	0.125623	0.023805	0.107176	0.107140	3.411479	0.038373	
0.851207	0.125374	0.014765	0.104611	0.104598	3.337136	0.038721	
0.864413	0.125230	0.009536	0.103082	0.103076	3.292383	0.038938	
0.872890	0.125174	0.007215	0.102369	0.102365	3.271148	0.039047	
0.877110	0.125152	0.006252	0.102072	0.102069	3.262255	0.039093	
0.885587	0.125105	0.004634	0.101578	0.101577	3.247721	0.039166	
0.898793	0.125067	0.002939	0.101026	0.101025	3.231083	0.039255	
0.913707	0.125037	0.001708	0.100620	0.100620	3.218890	0.039320	
0.926913	0.125022	0.001054	0.100393	0.100393	3.212010	0.039357	
0.935390	0.125017	0.000778	0.100292	0.100292	3.208886	0.039375	
0.939610	0.125013	0.000643	0.100249	0.100249	3.207649	0.039381	
0.948087	0.125009	0.000469	0.100184	0.100184	3.205660	0.039392	
0.961293	0.125006	0.000284	0.100113	0.100113	3.203468	0.039404	
0.976207	0.125003	0.000153	0.100064	0.100064	3.201982	0.039413	
0.989413	0.125002	0.000093	0.100039	0.100039	3.201188	0.039417	
0.997890	0.125001	0.000063	0.100027	0.100027	3.200842	0.039419	
