TITLE = "DG1DMBX32-P5RK5w10000iv80"
VARIABLES = "x" "Density" "Velocity in x" "Energy" "Pressure" "Temperature" "Fugacity"
ZONE T = "Final Time 0.10"
I = 192, J = 1, K = 1, F = POINT

0.001055	NaN	NaN	NaN	NaN	NaN	NaN	
0.005294	NaN	NaN	NaN	NaN	NaN	NaN	
0.011897	NaN	NaN	NaN	NaN	NaN	NaN	
0.019353	NaN	NaN	NaN	NaN	NaN	NaN	
0.025956	NaN	NaN	NaN	NaN	NaN	NaN	
0.030195	NaN	NaN	NaN	NaN	NaN	NaN	
0.032305	NaN	NaN	NaN	NaN	NaN	NaN	
0.036544	NaN	NaN	NaN	NaN	NaN	NaN	
0.043147	NaN	NaN	NaN	NaN	NaN	NaN	
0.050603	NaN	NaN	NaN	NaN	NaN	NaN	
0.057206	NaN	NaN	NaN	NaN	NaN	NaN	
0.061445	NaN	NaN	NaN	NaN	NaN	NaN	
0.063555	NaN	NaN	NaN	NaN	NaN	NaN	
0.067794	NaN	NaN	NaN	NaN	NaN	NaN	
0.074397	NaN	NaN	NaN	NaN	NaN	NaN	
0.081853	NaN	NaN	NaN	NaN	NaN	NaN	
0.088456	NaN	NaN	NaN	NaN	NaN	NaN	
0.092695	NaN	NaN	NaN	NaN	NaN	NaN	
0.094805	NaN	NaN	NaN	NaN	NaN	NaN	
0.099044	NaN	NaN	NaN	NaN	NaN	NaN	
0.105647	NaN	NaN	NaN	NaN	NaN	NaN	
0.113103	NaN	NaN	NaN	NaN	NaN	NaN	
0.119706	NaN	NaN	NaN	NaN	NaN	NaN	
0.123945	NaN	NaN	NaN	NaN	NaN	NaN	
0.126055	NaN	NaN	NaN	NaN	NaN	NaN	
0.130294	NaN	NaN	NaN	NaN	NaN	NaN	
0.136897	NaN	NaN	NaN	NaN	NaN	NaN	
0.144353	NaN	NaN	NaN	NaN	NaN	NaN	
0.150956	NaN	NaN	NaN	NaN	NaN	NaN	
0.155195	NaN	NaN	NaN	NaN	NaN	NaN	
0.157305	NaN	NaN	NaN	NaN	NaN	NaN	
0.161544	NaN	NaN	NaN	NaN	NaN	NaN	
0.168147	NaN	NaN	NaN	NaN	NaN	NaN	
0.175603	NaN	NaN	NaN	NaN	NaN	NaN	
0.182206	NaN	NaN	NaN	NaN	NaN	NaN	
0.186445	NaN	NaN	NaN	NaN	NaN	NaN	
0.188555	NaN	NaN	NaN	NaN	NaN	NaN	
0.192794	NaN	NaN	NaN	NaN	NaN	NaN	
0.199397	NaN	NaN	NaN	NaN	NaN	NaN	
0.206853	NaN	NaN	NaN	NaN	NaN	NaN	
0.213456	NaN	NaN	NaN	NaN	NaN	NaN	
0.217695	NaN	NaN	NaN	NaN	NaN	NaN	
0.219805	NaN	NaN	NaN	NaN	NaN	NaN	
0.224044	NaN	NaN	NaN	NaN	NaN	NaN	
0.230647	NaN	NaN	NaN	NaN	NaN	NaN	
0.238103	NaN	NaN	NaN	NaN	NaN	NaN	
0.244706	NaN	NaN	NaN	NaN	NaN	NaN	
0.248945	NaN	NaN	NaN	NaN	NaN	NaN	
0.251055	NaN	NaN	NaN	NaN	NaN	NaN	
0.255294	NaN	NaN	NaN	NaN	NaN	NaN	
0.261897	NaN	NaN	NaN	NaN	NaN	NaN	
0.269353	NaN	NaN	NaN	NaN	NaN	NaN	
0.275956	NaN	NaN	NaN	NaN	NaN	NaN	
0.280195	NaN	NaN	NaN	NaN	NaN	NaN	
0.282305	NaN	NaN	NaN	NaN	NaN	NaN	
0.286544	NaN	NaN	NaN	NaN	NaN	NaN	
0.293147	NaN	NaN	NaN	NaN	NaN	NaN	
0.300603	NaN	NaN	NaN	NaN	NaN	NaN	
0.307206	NaN	NaN	NaN	NaN	NaN	NaN	
0.311445	NaN	NaN	NaN	NaN	NaN	NaN	
0.313555	NaN	NaN	NaN	NaN	NaN	NaN	
0.317794	NaN	NaN	NaN	NaN	NaN	NaN	
0.324397	NaN	NaN	NaN	NaN	NaN	NaN	
0.331853	NaN	NaN	NaN	NaN	NaN	NaN	
0.338456	NaN	NaN	NaN	NaN	NaN	NaN	
0.342695	NaN	NaN	NaN	NaN	NaN	NaN	
0.344805	NaN	NaN	NaN	NaN	NaN	NaN	
0.349044	NaN	NaN	NaN	NaN	NaN	NaN	
0.355647	NaN	NaN	NaN	NaN	NaN	NaN	
0.363103	NaN	NaN	NaN	NaN	NaN	NaN	
0.369706	NaN	NaN	NaN	NaN	NaN	NaN	
0.373945	NaN	NaN	NaN	NaN	NaN	NaN	
0.376055	NaN	NaN	NaN	NaN	NaN	NaN	
0.380294	NaN	NaN	NaN	NaN	NaN	NaN	
0.386897	NaN	NaN	NaN	NaN	NaN	NaN	
0.394353	NaN	NaN	NaN	NaN	NaN	NaN	
0.400956	NaN	NaN	NaN	NaN	NaN	NaN	
0.405195	NaN	NaN	NaN	NaN	NaN	NaN	
0.407305	NaN	NaN	NaN	NaN	NaN	NaN	
0.411544	NaN	NaN	NaN	NaN	NaN	NaN	
0.418147	NaN	NaN	NaN	NaN	NaN	NaN	
0.425603	NaN	NaN	NaN	NaN	NaN	NaN	
0.432206	NaN	NaN	NaN	NaN	NaN	NaN	
0.436445	NaN	NaN	NaN	NaN	NaN	NaN	
0.438555	NaN	NaN	NaN	NaN	NaN	NaN	
0.442794	NaN	NaN	NaN	NaN	NaN	NaN	
0.449397	NaN	NaN	NaN	NaN	NaN	NaN	
0.456853	NaN	NaN	NaN	NaN	NaN	NaN	
0.463456	NaN	NaN	NaN	NaN	NaN	NaN	
0.467695	NaN	NaN	NaN	NaN	NaN	NaN	
0.469805	NaN	NaN	NaN	NaN	NaN	NaN	
0.474044	NaN	NaN	NaN	NaN	NaN	NaN	
0.480647	NaN	NaN	NaN	NaN	NaN	NaN	
0.488103	NaN	NaN	NaN	NaN	NaN	NaN	
0.494706	NaN	NaN	NaN	NaN	NaN	NaN	
0.498945	NaN	NaN	NaN	NaN	NaN	NaN	
0.501055	NaN	NaN	NaN	NaN	NaN	NaN	
0.505294	NaN	NaN	NaN	NaN	NaN	NaN	
0.511897	NaN	NaN	NaN	NaN	NaN	NaN	
0.519353	NaN	NaN	NaN	NaN	NaN	NaN	
0.525956	NaN	NaN	NaN	NaN	NaN	NaN	
0.530195	NaN	NaN	NaN	NaN	NaN	NaN	
0.532305	NaN	NaN	NaN	NaN	NaN	NaN	
0.536544	NaN	NaN	NaN	NaN	NaN	NaN	
0.543147	NaN	NaN	NaN	NaN	NaN	NaN	
0.550603	NaN	NaN	NaN	NaN	NaN	NaN	
0.557206	NaN	NaN	NaN	NaN	NaN	NaN	
0.561445	NaN	NaN	NaN	NaN	NaN	NaN	
0.563555	NaN	NaN	NaN	NaN	NaN	NaN	
0.567794	NaN	NaN	NaN	NaN	NaN	NaN	
0.574397	NaN	NaN	NaN	NaN	NaN	NaN	
0.581853	NaN	NaN	NaN	NaN	NaN	NaN	
0.588456	NaN	NaN	NaN	NaN	NaN	NaN	
0.592695	NaN	NaN	NaN	NaN	NaN	NaN	
0.594805	NaN	NaN	NaN	NaN	NaN	NaN	
0.599044	NaN	NaN	NaN	NaN	NaN	NaN	
0.605647	NaN	NaN	NaN	NaN	NaN	NaN	
0.613103	NaN	NaN	NaN	NaN	NaN	NaN	
0.619706	NaN	NaN	NaN	NaN	NaN	NaN	
0.623945	NaN	NaN	NaN	NaN	NaN	NaN	
0.626055	NaN	NaN	NaN	NaN	NaN	NaN	
0.630294	NaN	NaN	NaN	NaN	NaN	NaN	
0.636897	NaN	NaN	NaN	NaN	NaN	NaN	
0.644353	NaN	NaN	NaN	NaN	NaN	NaN	
0.650956	NaN	NaN	NaN	NaN	NaN	NaN	
0.655195	NaN	NaN	NaN	NaN	NaN	NaN	
0.657305	NaN	NaN	NaN	NaN	NaN	NaN	
0.661544	NaN	NaN	NaN	NaN	NaN	NaN	
0.668147	NaN	NaN	NaN	NaN	NaN	NaN	
0.675603	NaN	NaN	NaN	NaN	NaN	NaN	
0.682206	NaN	NaN	NaN	NaN	NaN	NaN	
0.686445	NaN	NaN	NaN	NaN	NaN	NaN	
0.688555	NaN	NaN	NaN	NaN	NaN	NaN	
0.692794	NaN	NaN	NaN	NaN	NaN	NaN	
0.699397	NaN	NaN	NaN	NaN	NaN	NaN	
0.706853	NaN	NaN	NaN	NaN	NaN	NaN	
0.713456	NaN	NaN	NaN	NaN	NaN	NaN	
0.717695	NaN	NaN	NaN	NaN	NaN	NaN	
0.719805	NaN	NaN	NaN	NaN	NaN	NaN	
0.724044	NaN	NaN	NaN	NaN	NaN	NaN	
0.730647	NaN	NaN	NaN	NaN	NaN	NaN	
0.738103	NaN	NaN	NaN	NaN	NaN	NaN	
0.744706	NaN	NaN	NaN	NaN	NaN	NaN	
0.748945	NaN	NaN	NaN	NaN	NaN	NaN	
0.751055	NaN	NaN	NaN	NaN	NaN	NaN	
0.755294	NaN	NaN	NaN	NaN	NaN	NaN	
0.761897	NaN	NaN	NaN	NaN	NaN	NaN	
0.769353	NaN	NaN	NaN	NaN	NaN	NaN	
0.775956	NaN	NaN	NaN	NaN	NaN	NaN	
0.780195	NaN	NaN	NaN	NaN	NaN	NaN	
0.782305	NaN	NaN	NaN	NaN	NaN	NaN	
0.786544	NaN	NaN	NaN	NaN	NaN	NaN	
0.793147	NaN	NaN	NaN	NaN	NaN	NaN	
0.800603	NaN	NaN	NaN	NaN	NaN	NaN	
0.807206	NaN	NaN	NaN	NaN	NaN	NaN	
0.811445	NaN	NaN	NaN	NaN	NaN	NaN	
0.813555	NaN	NaN	NaN	NaN	NaN	NaN	
0.817794	NaN	NaN	NaN	NaN	NaN	NaN	
0.824397	NaN	NaN	NaN	NaN	NaN	NaN	
0.831853	NaN	NaN	NaN	NaN	NaN	NaN	
0.838456	NaN	NaN	NaN	NaN	NaN	NaN	
0.842695	NaN	NaN	NaN	NaN	NaN	NaN	
0.844805	NaN	NaN	NaN	NaN	NaN	NaN	
0.849044	NaN	NaN	NaN	NaN	NaN	NaN	
0.855647	NaN	NaN	NaN	NaN	NaN	NaN	
0.863103	NaN	NaN	NaN	NaN	NaN	NaN	
0.869706	NaN	NaN	NaN	NaN	NaN	NaN	
0.873945	NaN	NaN	NaN	NaN	NaN	NaN	
0.876055	NaN	NaN	NaN	NaN	NaN	NaN	
0.880294	NaN	NaN	NaN	NaN	NaN	NaN	
0.886897	NaN	NaN	NaN	NaN	NaN	NaN	
0.894353	NaN	NaN	NaN	NaN	NaN	NaN	
0.900956	NaN	NaN	NaN	NaN	NaN	NaN	
0.905195	NaN	NaN	NaN	NaN	NaN	NaN	
0.907305	NaN	NaN	NaN	NaN	NaN	NaN	
0.911544	NaN	NaN	NaN	NaN	NaN	NaN	
0.918147	NaN	NaN	NaN	NaN	NaN	NaN	
0.925603	NaN	NaN	NaN	NaN	NaN	NaN	
0.932206	NaN	NaN	NaN	NaN	NaN	NaN	
0.936445	NaN	NaN	NaN	NaN	NaN	NaN	
0.938555	NaN	NaN	NaN	NaN	NaN	NaN	
0.942794	NaN	NaN	NaN	NaN	NaN	NaN	
0.949397	NaN	NaN	NaN	NaN	NaN	NaN	
0.956853	NaN	NaN	NaN	NaN	NaN	NaN	
0.963456	NaN	NaN	NaN	NaN	NaN	NaN	
0.967695	NaN	NaN	NaN	NaN	NaN	NaN	
0.969805	NaN	NaN	NaN	NaN	NaN	NaN	
0.974044	NaN	NaN	NaN	NaN	NaN	NaN	
0.980647	NaN	NaN	NaN	NaN	NaN	NaN	
0.988103	NaN	NaN	NaN	NaN	NaN	NaN	
0.994706	NaN	NaN	NaN	NaN	NaN	NaN	
0.998945	NaN	NaN	NaN	NaN	NaN	NaN	
