TITLE = "DG1DFDX32-P5RK4w1000iv80"
VARIABLES = "x" "Density" "Velocity in x" "Energy" "Pressure" "Temperature" "Fugacity"
ZONE T = "Final Time 0.10"
I = 192, J = 1, K = 1, F = POINT

0.001055	0.836647	0.000000	0.912714	0.912714	4.002247	0.281659	
0.005294	0.836647	0.000000	0.912714	0.912714	4.002247	0.281659	
0.011897	0.836647	0.000000	0.912714	0.912714	4.002247	0.281659	
0.019353	0.836647	0.000000	0.912714	0.912714	4.002247	0.281659	
0.025956	0.836647	0.000000	0.912714	0.912714	4.002247	0.281659	
0.030195	0.836647	0.000000	0.912714	0.912714	4.002247	0.281659	
0.032305	0.836647	0.000000	0.912714	0.912714	4.002247	0.281659	
0.036544	0.836647	0.000000	0.912714	0.912714	4.002247	0.281659	
0.043147	0.836647	0.000000	0.912714	0.912714	4.002247	0.281659	
0.050603	0.836647	0.000000	0.912714	0.912714	4.002247	0.281659	
0.057206	0.836647	0.000000	0.912714	0.912714	4.002247	0.281659	
0.061445	0.836647	-0.000000	0.912714	0.912714	4.002247	0.281659	
0.063555	0.836647	-0.000000	0.912714	0.912714	4.002247	0.281659	
0.067794	0.836647	0.000000	0.912714	0.912714	4.002247	0.281659	
0.074397	0.836647	0.000000	0.912714	0.912714	4.002247	0.281659	
0.081853	0.836647	-0.000000	0.912714	0.912714	4.002247	0.281659	
0.088456	0.836647	0.000000	0.912714	0.912714	4.002247	0.281659	
0.092695	0.836647	0.000000	0.912714	0.912714	4.002247	0.281659	
0.094805	0.836647	-0.000000	0.912714	0.912714	4.002247	0.281659	
0.099044	0.836647	-0.000000	0.912714	0.912714	4.002247	0.281659	
0.105647	0.836647	0.000000	0.912714	0.912714	4.002247	0.281659	
0.113103	0.836647	-0.000000	0.912714	0.912714	4.002247	0.281659	
0.119706	0.836647	0.000000	0.912714	0.912714	4.002247	0.281659	
0.123945	0.836647	0.000000	0.912714	0.912714	4.002247	0.281659	
0.126055	0.836647	-0.000000	0.912714	0.912714	4.002247	0.281659	
0.130294	0.836647	-0.000000	0.912714	0.912714	4.002247	0.281659	
0.136897	0.836647	0.000000	0.912713	0.912713	4.002246	0.281659	
0.144353	0.836647	0.000000	0.912714	0.912714	4.002247	0.281659	
0.150956	0.836647	-0.000000	0.912714	0.912714	4.002248	0.281659	
0.155195	0.836647	0.000001	0.912713	0.912713	4.002244	0.281659	
0.157305	0.836647	0.000001	0.912713	0.912713	4.002242	0.281659	
0.161544	0.836650	-0.000008	0.912722	0.912722	4.002270	0.281659	
0.168147	0.836651	-0.000011	0.912725	0.912725	4.002281	0.281659	
0.175603	0.836652	-0.000014	0.912728	0.912728	4.002290	0.281659	
0.182206	0.836646	0.000010	0.912698	0.912698	4.002230	0.281659	
0.186445	0.836603	0.000150	0.912536	0.912536	4.001821	0.281659	
0.188555	0.836555	0.000304	0.912357	0.912357	4.001006	0.281674	
0.192794	0.836412	0.000783	0.911810	0.911809	3.999271	0.281689	
0.199397	0.835975	0.002216	0.910165	0.910162	3.994371	0.281719	
0.206853	0.834967	0.005496	0.906455	0.906442	3.982590	0.281810	
0.213456	0.833379	0.010607	0.900781	0.900734	3.964948	0.281915	
0.217695	0.831913	0.015276	0.895679	0.895582	3.949238	0.281991	
0.219805	0.831040	0.018048	0.892681	0.892546	3.939887	0.282036	
0.224044	0.828978	0.024559	0.885719	0.885469	3.918238	0.282127	
0.230647	0.824932	0.037256	0.872449	0.871876	3.876940	0.282263	
0.238103	0.819173	0.055194	0.854282	0.853034	3.819557	0.282414	
0.244706	0.813115	0.073950	0.835954	0.833731	3.760900	0.282520	
0.248945	0.808809	0.087233	0.823360	0.820283	3.719836	0.282580	
0.251055	0.806554	0.094177	0.816902	0.813325	3.698454	0.282610	
0.255294	0.801830	0.108692	0.803666	0.798929	3.654599	0.282641	
0.261897	0.794009	0.132679	0.782545	0.775556	3.582370	0.282701	
0.269353	0.784571	0.161580	0.758310	0.748068	3.497080	0.282731	
0.275956	0.775768	0.188482	0.736858	0.723079	3.418433	0.282761	
0.280195	0.769974	0.206172	0.723347	0.706982	3.367557	0.282761	
0.282305	0.767054	0.215095	0.716703	0.698959	3.342071	0.282761	
0.286544	0.761116	0.233214	0.703539	0.682841	3.290527	0.282761	
0.293147	0.751690	0.261956	0.683612	0.657821	3.209528	0.282761	
0.300603	0.740836	0.295045	0.662034	0.629788	3.117786	0.282746	
0.307206	0.731073	0.324800	0.643847	0.605285	3.036702	0.282716	
0.311445	0.724743	0.344085	0.632662	0.589759	2.984612	0.282701	
0.313555	0.721575	0.353736	0.627232	0.582087	2.958570	0.282701	
0.317794	0.715182	0.373204	0.616634	0.566828	2.906902	0.282671	
0.324397	0.705155	0.403724	0.600907	0.543439	2.826726	0.282625	
0.331853	0.693754	0.438414	0.584328	0.517656	2.736800	0.282580	
0.338456	0.683608	0.469277	0.570689	0.495417	2.658050	0.282535	
0.342695	0.677078	0.489137	0.562447	0.481450	2.608213	0.282489	
0.344805	0.673823	0.499032	0.558494	0.474592	2.583428	0.282474	
0.349044	0.667280	0.518917	0.550845	0.461004	2.533961	0.282444	
0.355647	0.657092	0.549890	0.539721	0.440376	2.458277	0.282369	
0.363103	0.645612	0.584785	0.528285	0.417893	2.374205	0.282293	
0.369706	0.635499	0.615514	0.519132	0.398751	2.301650	0.282202	
0.373945	0.629051	0.635098	0.513724	0.386861	2.255993	0.282142	
0.376055	0.625858	0.644796	0.511167	0.381063	2.233548	0.282112	
0.380294	0.619488	0.664139	0.506301	0.369679	2.189103	0.282051	
0.386897	0.609713	0.693805	0.499418	0.352671	2.121899	0.281946	
0.394353	0.598985	0.726327	0.492646	0.334649	2.049552	0.281810	
0.400956	0.589897	0.753840	0.487525	0.319913	1.989625	0.281659	
0.405195	0.584348	0.770612	0.484669	0.311163	1.953608	0.281553	
0.407305	0.581691	0.778635	0.483373	0.307041	1.936576	0.281493	
0.411544	0.576606	0.793962	0.481020	0.299280	1.904420	0.281357	
0.418147	0.569518	0.815243	0.478024	0.288767	1.860406	0.281130	
0.425603	0.563061	0.834465	0.475587	0.279549	1.821920	0.280813	
0.432206	0.558940	0.846572	0.474201	0.273909	1.798444	0.280526	
0.436445	0.557082	0.851948	0.473627	0.271458	1.788288	0.280360	
0.438555	0.556361	0.854009	0.473414	0.270528	1.784476	0.280284	
0.442794	0.555270	0.857055	0.473108	0.269173	1.779098	0.280133	
0.449397	0.554335	0.859599	0.472868	0.268066	1.774885	0.279967	
0.456853	0.553844	0.860699	0.472756	0.267611	1.773515	0.279801	
0.463456	0.553604	0.861056	0.472709	0.267483	1.773593	0.279650	
0.467695	0.553529	0.861113	0.472707	0.267482	1.773759	0.279589	
0.469805	0.553499	0.861145	0.472715	0.267486	1.773888	0.279559	
0.474044	0.553426	0.861188	0.472721	0.267499	1.774227	0.279484	
0.480647	0.553296	0.861196	0.472699	0.267520	1.774851	0.279348	
0.488103	0.553156	0.861143	0.472661	0.267559	1.775734	0.279182	
0.494706	0.553032	0.861071	0.472637	0.267616	1.776553	0.279030	
0.498945	0.552934	0.861050	0.472622	0.267647	1.777063	0.278925	
0.501055	0.552880	0.861048	0.472609	0.267656	1.777361	0.278864	
0.505294	0.552753	0.861076	0.472588	0.267668	1.778010	0.278728	
0.511897	0.552525	0.861127	0.472548	0.267688	1.778982	0.278502	
0.519353	0.552222	0.861105	0.472480	0.267743	1.780444	0.278185	
0.525956	0.551889	0.861041	0.472393	0.267810	1.782050	0.277837	
0.530195	0.551584	0.861071	0.472311	0.267827	1.783352	0.277535	
0.532305	0.551388	0.861108	0.472256	0.267827	1.784049	0.277354	
0.536544	0.550889	0.861273	0.472127	0.267805	1.785748	0.276901	
0.543147	0.549391	0.861742	0.471748	0.267760	1.791031	0.275526	
0.550603	0.545365	0.862807	0.470752	0.267757	1.806029	0.271795	
0.557206	0.536370	0.865083	0.468435	0.267734	1.840141	0.263594	
0.561445	0.525565	0.867671	0.465523	0.267686	1.882722	0.253942	
0.563555	0.518095	0.869400	0.463453	0.267650	1.912962	0.247416	
0.567794	0.498289	0.873755	0.457777	0.267569	1.997802	0.230590	
0.574397	0.453904	0.882641	0.444297	0.267489	2.214577	0.195396	
0.581853	0.390204	0.893761	0.423421	0.267572	2.611492	0.150505	
0.588456	0.332632	0.901965	0.403087	0.267782	3.099452	0.115175	
0.592695	0.299514	0.905126	0.390650	0.267962	3.463719	0.096959	
0.594805	0.284614	0.906077	0.384857	0.268026	3.655175	0.089240	
0.599044	0.258239	0.906364	0.374217	0.268146	4.047402	0.076296	
0.605647	0.226319	0.903123	0.360570	0.268273	4.641785	0.061840	
0.613103	0.201695	0.895613	0.349222	0.268330	5.228810	0.051569	
0.619706	0.187540	0.887651	0.342229	0.268345	5.632752	0.046026	
0.623945	0.181221	0.882665	0.338937	0.268342	5.835515	0.043624	
0.626055	0.178713	0.880310	0.337586	0.268339	5.919327	0.042688	
0.630294	0.174705	0.875908	0.335339	0.268321	6.058309	0.041207	
0.636897	0.170561	0.870504	0.332953	0.268330	6.209296	0.039697	
0.644353	0.167944	0.866439	0.331358	0.268319	6.306581	0.038760	
0.650956	0.166729	0.864132	0.330579	0.268329	6.354754	0.038322	
0.655195	0.166282	0.863204	0.330270	0.268320	6.369478	0.038171	
0.657305	0.166123	0.862951	0.330162	0.268308	6.376975	0.038111	
0.661544	0.165904	0.862542	0.329997	0.268282	6.384782	0.038035	
0.668147	0.165732	0.862710	0.329907	0.268233	6.391294	0.037975	
0.675603	0.165659	0.863312	0.329885	0.268151	6.390681	0.037960	
0.682206	0.165697	0.863136	0.329910	0.268187	6.388633	0.037975	
0.686445	0.165719	0.862882	0.329943	0.268249	6.390297	0.037975	
0.688555	0.165726	0.862741	0.329963	0.268287	6.390834	0.037975	
0.692794	0.165812	0.862179	0.329999	0.268371	6.387597	0.038005	
0.699397	0.165810	0.862025	0.330057	0.268452	6.392431	0.037990	
0.706853	0.165758	0.862451	0.330071	0.268424	6.393372	0.037975	
0.713456	0.165750	0.862767	0.330086	0.268397	6.392752	0.037975	
0.717695	0.165741	0.863169	0.330079	0.268335	6.392031	0.037975	
0.719805	0.165764	0.863176	0.330088	0.268335	6.388826	0.037990	
0.724044	0.165813	0.863153	0.330113	0.268345	6.387683	0.038005	
0.730647	0.165790	0.863501	0.330177	0.268367	6.390832	0.037990	
0.738103	0.165759	0.863694	0.330264	0.268438	6.393424	0.037975	
0.744706	0.165790	0.863313	0.330381	0.268598	6.395796	0.037975	
0.748945	0.165837	0.863065	0.330428	0.268664	6.394454	0.037990	
0.751055	0.165853	0.862985	0.330458	0.268699	6.395687	0.037990	
0.755294	0.165895	0.862869	0.330491	0.268733	6.394013	0.038005	
0.761897	0.165868	0.863314	0.330541	0.268729	6.396837	0.037990	
0.769353	0.165805	0.864239	0.330569	0.268649	6.396966	0.037975	
0.775956	0.165787	0.865071	0.330600	0.268567	6.395548	0.037975	
0.780195	0.165811	0.865391	0.330681	0.268593	6.392477	0.037990	
0.782305	0.165877	0.864738	0.330836	0.268817	6.397595	0.037990	
0.786544	0.165957	0.865174	0.330928	0.268817	6.393845	0.038020	
0.793147	0.165930	0.865489	0.331154	0.269007	6.401628	0.037990	
0.800603	0.165902	0.863679	0.331141	0.269265	6.409388	0.037960	
0.807206	0.165706	0.862406	0.329721	0.268100	6.389351	0.037975	
0.811445	0.165375	0.857529	0.328171	0.267367	6.383572	0.037915	
0.813555	0.165422	0.854036	0.328117	0.267789	6.392186	0.037899	
0.817794	0.163913	0.835951	0.320244	0.262972	6.335003	0.037718	
0.824397	0.160939	0.797963	0.307254	0.256015	6.282481	0.037174	
0.831853	0.144997	0.518908	0.219741	0.200220	5.456801	0.035906	
0.838456	0.125257	0.090490	0.117340	0.116827	3.682097	0.037809	
0.842695	0.118604	-0.051672	0.091255	0.091096	3.031579	0.039501	
0.844805	0.122281	0.006863	0.099129	0.099126	3.198640	0.039652	
0.849044	0.122720	0.022797	0.102348	0.102316	3.289569	0.039229	
0.855647	0.121146	-0.007827	0.097600	0.097597	3.179498	0.039395	
0.863103	0.121774	0.002424	0.098895	0.098895	3.205346	0.039440	
0.869706	0.121613	0.001409	0.098947	0.098947	3.211215	0.039349	
0.873945	0.121301	-0.006096	0.097744	0.097742	3.180508	0.039440	
0.876055	0.121682	0.000624	0.098567	0.098567	3.195740	0.039470	
0.880294	0.121662	0.001240	0.098865	0.098865	3.206639	0.039395	
0.886897	0.121571	-0.000564	0.098577	0.098577	3.199436	0.039410	
0.894353	0.121610	0.000189	0.098662	0.098662	3.201476	0.039410	
0.900956	0.121597	-0.000038	0.098648	0.098648	3.200787	0.039410	
0.905195	0.121584	-0.000318	0.098596	0.098596	3.200142	0.039410	
0.907305	0.121614	0.000230	0.098671	0.098671	3.201694	0.039410	
0.911544	0.121600	0.000022	0.098650	0.098650	3.200967	0.039410	
0.918147	0.121599	-0.000025	0.098641	0.098641	3.200898	0.039410	
0.925603	0.121601	0.000021	0.098648	0.098648	3.201009	0.039410	
0.932206	0.121599	-0.000021	0.098642	0.098642	3.200891	0.039410	
0.936445	0.121601	0.000006	0.098645	0.098645	3.200989	0.039410	
0.938555	0.121601	0.000024	0.098648	0.098648	3.201019	0.039410	
0.942794	0.121599	-0.000008	0.098644	0.098644	3.200929	0.039410	
0.949397	0.121600	0.000002	0.098645	0.098645	3.200962	0.039410	
0.956853	0.121600	-0.000000	0.098645	0.098645	3.200952	0.039410	
0.963456	0.121600	-0.000001	0.098645	0.098645	3.200952	0.039410	
0.967695	0.121600	0.000003	0.098645	0.098645	3.200964	0.039410	
0.969805	0.121600	-0.000000	0.098645	0.098645	3.200952	0.039410	
0.974044	0.121600	-0.000001	0.098645	0.098645	3.200953	0.039410	
0.980647	0.121600	0.000000	0.098645	0.098645	3.200955	0.039410	
0.988103	0.121600	-0.000000	0.098645	0.098645	3.200954	0.039410	
0.994706	0.121600	0.000000	0.098645	0.098645	3.200955	0.039410	
0.998945	0.121600	0.000000	0.098645	0.098645	3.200955	0.039410	
