TITLE = "DG1DMBX16-P4RK3w5000iv80"
VARIABLES = "x" "Density" "Velocity in x" "Energy" "Pressure" "Temperature" "Fugacity"
ZONE T = "Final Time 0.10"
I = 80, J = 1, K = 1, F = POINT

0.002932	1.000000	-0.000001	1.000001	1.000001	4.000001	0.282095	
0.014423	1.000000	0.000001	0.999999	0.999999	3.999998	0.282095	
0.031250	1.000000	-0.000000	1.000000	1.000000	4.000001	0.282095	
0.048077	1.000000	-0.000000	1.000000	1.000000	4.000000	0.282095	
0.059568	0.999998	0.000004	0.999995	0.999995	3.999987	0.282095	
0.065432	1.000001	-0.000004	1.000004	1.000004	4.000012	0.282095	
0.076923	1.000001	-0.000002	1.000002	1.000002	4.000006	0.282095	
0.093750	0.999998	0.000005	0.999994	0.999994	3.999983	0.282095	
0.110577	1.000004	-0.000010	1.000014	1.000014	4.000038	0.282095	
0.122068	0.999998	0.000006	0.999990	0.999990	3.999967	0.282095	
0.127932	0.999988	0.000028	0.999966	0.999966	3.999911	0.282094	
0.139423	1.000006	-0.000015	1.000019	1.000019	4.000052	0.282095	
0.156250	1.000001	-0.000000	1.000000	1.000000	3.999998	0.282095	
0.173077	0.999984	0.000039	0.999953	0.999953	3.999877	0.282095	
0.184568	1.000061	-0.000160	1.000192	1.000192	4.000526	0.282093	
0.190432	1.000010	-0.000009	1.000015	1.000015	4.000021	0.282097	
0.201923	0.999947	0.000130	0.999836	0.999836	3.999557	0.282095	
0.218750	1.000056	-0.000142	1.000187	1.000187	4.000522	0.282092	
0.235577	0.999972	0.000074	0.999872	0.999872	3.999602	0.282101	
0.247068	0.999700	0.000735	0.999169	0.999169	3.997874	0.282085	
0.252932	1.000220	-0.000538	1.000669	1.000669	4.001797	0.282093	
0.264423	1.000209	-0.000517	1.000639	1.000639	4.001717	0.282093	
0.281250	0.999614	0.000946	0.998766	0.998765	3.996605	0.282106	
0.298077	1.000441	-0.001081	1.001542	1.001542	4.004402	0.282064	
0.309568	1.001079	-0.002535	1.002833	1.002830	4.006995	0.282153	
0.315432	0.998796	0.002785	0.996392	0.996388	3.990357	0.282095	
0.326923	0.998982	0.002549	0.996909	0.996906	3.991689	0.282101	
0.343750	1.001896	-0.004694	1.006058	1.006047	4.016573	0.282046	
0.360577	0.999106	0.002288	0.996487	0.996484	3.989504	0.282213	
0.372068	0.994104	0.013340	0.984367	0.984279	3.960465	0.281828	
0.377932	0.999719	0.002720	0.998083	0.998080	3.993443	0.282247	
0.389423	1.006324	-0.016530	1.019961	1.019823	4.053656	0.281994	
0.406250	0.994344	0.014880	0.981383	0.981272	3.947415	0.282361	
0.423077	0.942078	0.143607	0.842509	0.832795	3.535992	0.282655	
0.434568	0.888404	0.267955	0.737117	0.705224	3.175238	0.281286	
0.440432	0.864209	0.332835	0.691004	0.643136	2.976760	0.282600	
0.451923	0.807210	0.482647	0.611408	0.517389	2.563840	0.284424	
0.468750	0.699083	0.725246	0.530890	0.347038	1.985675	0.279898	
0.485577	0.637823	0.889668	0.513462	0.261041	1.637072	0.281249	
0.497068	0.659159	0.861177	0.518096	0.273671	1.660731	0.288580	
0.502932	0.631817	0.878402	0.511762	0.268010	1.696759	0.273657	
0.514423	0.656248	0.853921	0.513720	0.274458	1.672892	0.286259	
0.531250	0.365780	0.871175	0.414129	0.275325	3.010825	0.118933	
0.548077	0.144862	0.883389	0.328175	0.271651	7.500957	0.029842	
0.559568	0.156629	0.820053	0.329847	0.277182	7.078687	0.033214	
0.565432	0.191929	0.883771	0.347316	0.272363	5.676323	0.045450	
0.576923	0.173132	0.867346	0.331526	0.266403	6.154896	0.039372	
0.593750	0.167871	0.924938	0.363942	0.292134	6.960917	0.035898	
0.610577	0.160580	0.605696	0.230257	0.200801	5.001916	0.040509	
0.622068	0.124532	-0.283426	0.073374	0.068373	2.196149	0.047410	
0.627932	0.094742	-0.390828	0.072720	0.065484	2.764731	0.032147	
0.639423	0.136161	0.170631	0.120297	0.118315	3.475739	0.041205	
0.656250	0.121541	-0.048346	0.096782	0.096640	3.180475	0.038451	
0.673077	0.125407	0.002130	0.098333	0.098333	3.136454	0.039951	
0.684568	0.129998	0.073404	0.111127	0.110777	3.408592	0.039726	
0.690432	0.122753	-0.030147	0.097948	0.097892	3.189880	0.038777	
0.701923	0.123963	-0.018117	0.096837	0.096816	3.124034	0.039569	
0.718750	0.125760	0.013518	0.102166	0.102155	3.249213	0.039362	
0.735577	0.124481	-0.009026	0.098621	0.098616	3.168862	0.039453	
0.747068	0.124841	-0.004300	0.099504	0.099503	3.188148	0.039447	
0.752932	0.125777	0.014441	0.101993	0.101979	3.243175	0.039404	
0.764423	0.124833	-0.002765	0.099613	0.099612	3.191855	0.039421	
0.781250	0.125006	-0.000023	0.100005	0.100005	3.200013	0.039426	
0.798077	0.125064	0.001175	0.100160	0.100160	3.203457	0.039423	
0.809568	0.124855	-0.002438	0.099675	0.099675	3.193292	0.039420	
0.815432	0.125001	-0.000084	0.099961	0.099961	3.198740	0.039432	
0.826923	0.125040	0.000704	0.100108	0.100108	3.202440	0.039422	
0.843750	0.124979	-0.000355	0.099946	0.099946	3.198807	0.039425	
0.860577	0.125011	0.000183	0.100028	0.100028	3.200596	0.039424	
0.872068	0.125007	0.000164	0.100021	0.100021	3.200490	0.039423	
0.877932	0.124983	-0.000324	0.099956	0.099956	3.199036	0.039424	
0.889423	0.125003	0.000050	0.100007	0.100007	3.200143	0.039424	
0.906250	0.125000	0.000001	0.100000	0.100000	3.200001	0.039424	
0.923077	0.124999	-0.000021	0.099997	0.099997	3.199938	0.039424	
0.934568	0.125003	0.000045	0.100006	0.100006	3.200124	0.039424	
0.940432	0.125000	-0.000002	0.100000	0.100000	3.200013	0.039424	
0.951923	0.124999	-0.000011	0.099998	0.099998	3.199961	0.039424	
0.968750	0.125000	0.000006	0.100001	0.100001	3.200020	0.039424	
0.985577	0.125000	-0.000003	0.099999	0.099999	3.199989	0.039424	
0.997068	0.125000	-0.000001	0.100000	0.100000	3.199992	0.039424	
