TITLE = "DG1DFDX64-P4RK4w10000iv80"
VARIABLES = "x" "Density" "Velocity in x" "Energy" "Pressure" "Temperature" "Fugacity"
ZONE T = "Final Time 0.10"
I = 320, J = 1, K = 1, F = POINT

0.000733	0.832278	0.000000	0.910243	0.910243	4.014804	0.279393	
0.003606	0.832278	0.000000	0.910243	0.910243	4.014804	0.279393	
0.007813	0.832278	0.000000	0.910243	0.910243	4.014804	0.279393	
0.012019	0.832278	0.000000	0.910243	0.910243	4.014804	0.279393	
0.014892	0.832278	0.000000	0.910243	0.910243	4.014804	0.279393	
0.016358	0.832278	-0.000000	0.910243	0.910243	4.014804	0.279393	
0.019231	0.832278	0.000000	0.910243	0.910243	4.014804	0.279393	
0.023438	0.832278	0.000000	0.910243	0.910243	4.014804	0.279393	
0.027644	0.832278	-0.000000	0.910243	0.910243	4.014804	0.279393	
0.030517	0.832278	0.000000	0.910243	0.910243	4.014804	0.279393	
0.031983	0.832278	0.000000	0.910243	0.910243	4.014804	0.279393	
0.034856	0.832278	0.000000	0.910243	0.910243	4.014804	0.279393	
0.039063	0.832278	-0.000000	0.910243	0.910243	4.014804	0.279393	
0.043269	0.832278	0.000000	0.910243	0.910243	4.014804	0.279393	
0.046142	0.832278	0.000000	0.910243	0.910243	4.014804	0.279393	
0.047608	0.832278	-0.000000	0.910243	0.910243	4.014804	0.279393	
0.050481	0.832278	-0.000000	0.910243	0.910243	4.014804	0.279393	
0.054688	0.832278	0.000000	0.910242	0.910242	4.014804	0.279393	
0.058894	0.832278	-0.000000	0.910243	0.910243	4.014804	0.279393	
0.061767	0.832278	-0.000000	0.910243	0.910243	4.014804	0.279393	
0.063233	0.832278	-0.000000	0.910243	0.910243	4.014804	0.279393	
0.066106	0.832278	0.000000	0.910242	0.910242	4.014803	0.279393	
0.070313	0.832278	-0.000000	0.910243	0.910243	4.014804	0.279393	
0.074519	0.832278	-0.000000	0.910243	0.910243	4.014804	0.279393	
0.077392	0.832278	0.000000	0.910242	0.910242	4.014803	0.279393	
0.078858	0.832278	0.000000	0.910242	0.910242	4.014803	0.279393	
0.081731	0.832278	-0.000000	0.910243	0.910243	4.014804	0.279393	
0.085938	0.832278	-0.000000	0.910243	0.910243	4.014804	0.279393	
0.090144	0.832278	0.000000	0.910242	0.910242	4.014802	0.279393	
0.093017	0.832278	-0.000000	0.910243	0.910243	4.014804	0.279393	
0.094483	0.832278	-0.000001	0.910243	0.910243	4.014806	0.279393	
0.097356	0.832278	-0.000000	0.910243	0.910243	4.014805	0.279393	
0.101563	0.832278	0.000001	0.910242	0.910242	4.014801	0.279393	
0.105769	0.832278	-0.000000	0.910243	0.910243	4.014805	0.279393	
0.108642	0.832278	-0.000002	0.910244	0.910244	4.014809	0.279393	
0.110108	0.832278	-0.000000	0.910243	0.910243	4.014804	0.279393	
0.112981	0.832277	0.000002	0.910241	0.910241	4.014798	0.279393	
0.117188	0.832278	-0.000001	0.910243	0.910243	4.014805	0.279393	
0.121394	0.832279	-0.000003	0.910245	0.910245	4.014812	0.279393	
0.124267	0.832277	0.000003	0.910239	0.910239	4.014793	0.279393	
0.125733	0.832276	0.000006	0.910236	0.910236	4.014786	0.279393	
0.128606	0.832278	-0.000000	0.910243	0.910243	4.014805	0.279393	
0.132813	0.832280	-0.000006	0.910249	0.910249	4.014822	0.279393	
0.137019	0.832275	0.000007	0.910235	0.910235	4.014781	0.279393	
0.139892	0.832274	0.000010	0.910231	0.910231	4.014770	0.279393	
0.141358	0.832279	-0.000003	0.910246	0.910246	4.014813	0.279393	
0.144231	0.832283	-0.000015	0.910258	0.910258	4.014850	0.279393	
0.148438	0.832276	0.000006	0.910236	0.910236	4.014784	0.279393	
0.152644	0.832271	0.000021	0.910221	0.910221	4.014739	0.279393	
0.155517	0.832286	-0.000025	0.910269	0.910269	4.014882	0.279393	
0.156983	0.832292	-0.000043	0.910288	0.910288	4.014938	0.279393	
0.159856	0.832280	-0.000006	0.910249	0.910249	4.014824	0.279393	
0.164063	0.832262	0.000048	0.910191	0.910191	4.014652	0.279393	
0.168269	0.832287	-0.000029	0.910274	0.910274	4.014895	0.279393	
0.171142	0.832310	-0.000097	0.910345	0.910345	4.015111	0.279393	
0.172608	0.832292	-0.000045	0.910290	0.910290	4.014944	0.279393	
0.175481	0.832250	0.000084	0.910153	0.910153	4.014539	0.279393	
0.179688	0.832261	0.000051	0.910188	0.910188	4.014641	0.279393	
0.183894	0.832337	-0.000180	0.910434	0.910434	4.015371	0.279393	
0.186767	0.832304	-0.000079	0.910326	0.910326	4.015052	0.279393	
0.188233	0.832242	0.000111	0.910125	0.910125	4.014457	0.279393	
0.191106	0.832197	0.000248	0.909979	0.909979	4.014023	0.279393	
0.195313	0.832307	-0.000092	0.910341	0.910341	4.015090	0.279393	
0.199519	0.832395	-0.000358	0.910622	0.910622	4.015933	0.279393	
0.202392	0.832225	0.000160	0.910072	0.910072	4.014294	0.279393	
0.203858	0.832124	0.000473	0.909739	0.909739	4.013323	0.279393	
0.206731	0.832136	0.000436	0.909780	0.909780	4.013431	0.279393	
0.210938	0.832419	-0.000436	0.910706	0.910706	4.016169	0.279393	
0.215144	0.832481	-0.000620	0.910901	0.910901	4.016761	0.279393	
0.218017	0.832144	0.000403	0.909813	0.909813	4.013517	0.279393	
0.219483	0.832019	0.000799	0.909395	0.909394	4.012309	0.279393	
0.222356	0.832107	0.000523	0.909688	0.909688	4.013155	0.279393	
0.226563	0.832560	-0.000866	0.911163	0.911163	4.017524	0.279393	
0.230769	0.832082	0.000613	0.909581	0.909581	4.012916	0.279393	
0.233642	0.830376	0.005852	0.904025	0.904011	3.996481	0.279393	
0.235108	0.829142	0.009664	0.900011	0.899973	3.984609	0.279393	
0.237981	0.826090	0.019048	0.890233	0.890083	3.955324	0.279393	
0.242188	0.820745	0.035500	0.873438	0.872921	3.904308	0.279393	
0.246394	0.814922	0.053417	0.855641	0.854478	3.849108	0.279393	
0.249267	0.810821	0.066040	0.843410	0.841642	3.810465	0.279393	
0.250733	0.808692	0.072595	0.837159	0.835028	3.790474	0.279393	
0.253606	0.804478	0.085566	0.824990	0.822045	3.751080	0.279393	
0.257813	0.798221	0.104822	0.807398	0.803013	3.692957	0.279393	
0.262019	0.791895	0.124292	0.790188	0.784072	3.634654	0.279393	
0.264892	0.787547	0.137675	0.778692	0.771228	3.594853	0.279393	
0.266358	0.785322	0.144524	0.772911	0.764709	3.574568	0.279393	
0.269231	0.780949	0.157983	0.761752	0.752006	3.534871	0.279393	
0.273438	0.774522	0.177766	0.745829	0.733591	3.476924	0.279393	
0.277644	0.768071	0.197621	0.730411	0.715413	3.419247	0.279393	
0.280517	0.763655	0.211213	0.720177	0.703144	3.380040	0.279393	
0.281983	0.761398	0.218159	0.715048	0.696929	3.360094	0.279393	
0.284856	0.756971	0.231786	0.705177	0.684843	3.321135	0.279393	
0.289063	0.750477	0.251774	0.691154	0.667367	3.264393	0.279393	
0.293269	0.743971	0.271797	0.677641	0.650161	3.208041	0.279393	
0.296142	0.739523	0.285489	0.668706	0.638569	3.169793	0.279393	
0.297608	0.737251	0.292481	0.664237	0.632703	3.150351	0.279393	
0.300481	0.732797	0.306193	0.655654	0.621302	3.112394	0.279393	
0.304688	0.726265	0.326294	0.643500	0.604838	3.057162	0.279393	
0.308894	0.719726	0.346421	0.631833	0.588647	3.002356	0.279393	
0.311767	0.715256	0.360180	0.624141	0.577746	2.965177	0.279393	
0.313233	0.712973	0.367206	0.620302	0.572233	2.946283	0.279393	
0.316106	0.708498	0.380982	0.612943	0.561524	2.909409	0.279393	
0.320313	0.701937	0.401176	0.602554	0.546068	2.855772	0.279393	
0.324519	0.695367	0.421394	0.592619	0.530879	2.802569	0.279393	
0.327392	0.690877	0.435216	0.586091	0.520661	2.766490	0.279393	
0.328858	0.688584	0.442274	0.582840	0.515494	2.748159	0.279393	
0.331731	0.684088	0.456114	0.576621	0.505462	2.712386	0.279393	
0.335938	0.677496	0.476402	0.567872	0.490990	2.660363	0.279393	
0.340144	0.670895	0.496719	0.559543	0.476778	2.608774	0.279393	
0.343017	0.666382	0.510609	0.554091	0.467221	2.573796	0.279393	
0.344483	0.664077	0.517704	0.551382	0.462390	2.556024	0.279393	
0.347356	0.659557	0.531615	0.546213	0.453013	2.521349	0.279393	
0.351563	0.652930	0.552015	0.538974	0.439493	2.470931	0.279393	
0.355769	0.646291	0.572447	0.532116	0.426223	2.420936	0.279393	
0.358642	0.641771	0.586403	0.527649	0.417307	2.386977	0.279408	
0.360108	0.639471	0.593524	0.525436	0.412802	2.369686	0.279423	
0.362981	0.634889	0.607545	0.521230	0.404058	2.336269	0.279393	
0.367188	0.628220	0.628067	0.515369	0.391462	2.287451	0.279393	
0.371394	0.621577	0.648553	0.509865	0.379141	2.239126	0.279408	
0.374267	0.617041	0.662558	0.506303	0.370868	2.206358	0.279423	
0.375733	0.614756	0.669670	0.504547	0.366702	2.189649	0.279453	
0.378606	0.610175	0.683691	0.501231	0.358623	2.157534	0.279423	
0.382813	0.603524	0.704158	0.496652	0.347026	2.110754	0.279423	
0.387019	0.596950	0.724465	0.492404	0.335750	2.064642	0.279453	
0.389892	0.592416	0.738386	0.489679	0.328183	2.033586	0.279438	
0.391358	0.590192	0.745364	0.488345	0.324400	2.017612	0.279499	
0.394231	0.585705	0.759148	0.485846	0.317073	1.987233	0.279484	
0.398438	0.579172	0.779245	0.482429	0.306586	1.943148	0.279484	
0.402644	0.572817	0.798838	0.479344	0.296575	1.900562	0.279499	
0.405517	0.568499	0.812090	0.477403	0.289943	1.872190	0.279484	
0.406983	0.566458	0.818529	0.476479	0.286718	1.857923	0.279559	
0.409856	0.562333	0.831269	0.474752	0.280463	1.830794	0.279574	
0.414063	0.556419	0.849462	0.472465	0.271713	1.792493	0.279574	
0.418269	0.552269	0.862286	0.470953	0.265636	1.765531	0.279604	
0.421142	0.551799	0.863718	0.470799	0.264976	1.762688	0.279589	
0.422608	0.552427	0.861803	0.471010	0.265865	1.766540	0.279604	
0.425481	0.553714	0.857968	0.471421	0.267624	1.774134	0.279665	
0.429688	0.553863	0.857506	0.471494	0.267861	1.775253	0.279650	
0.433894	0.552639	0.861257	0.471041	0.266077	1.767254	0.279665	
0.436767	0.552916	0.860390	0.471162	0.266508	1.769350	0.279635	
0.438233	0.553426	0.858826	0.471342	0.267244	1.772452	0.279650	
0.441106	0.554244	0.856556	0.471600	0.268278	1.776726	0.279740	
0.445313	0.553983	0.857402	0.471501	0.267874	1.774888	0.279756	
0.449519	0.552992	0.860421	0.471121	0.266424	1.768387	0.279771	
0.452392	0.553277	0.859616	0.471222	0.266803	1.770046	0.279786	
0.453858	0.553642	0.858458	0.471364	0.267361	1.772545	0.279771	
0.456731	0.554045	0.857180	0.471510	0.267966	1.775289	0.279756	
0.460938	0.553749	0.858356	0.471348	0.267354	1.772103	0.279876	
0.465144	0.553228	0.860002	0.471118	0.266533	1.768285	0.279922	
0.468017	0.553934	0.857842	0.471383	0.267565	1.772961	0.279907	
0.469483	0.554483	0.856292	0.471567	0.268284	1.775830	0.279967	
0.472356	0.554708	0.855514	0.471661	0.268664	1.777763	0.279922	
0.476563	0.553881	0.857643	0.471475	0.267771	1.774560	0.279725	
0.480769	0.553626	0.858407	0.471342	0.267368	1.772607	0.279756	
0.483642	0.554293	0.856507	0.471539	0.268223	1.776229	0.279816	
0.485108	0.554388	0.856217	0.471566	0.268353	1.776676	0.279831	
0.487981	0.553895	0.857515	0.471433	0.267784	1.774649	0.279725	
0.492188	0.552791	0.860231	0.471233	0.266701	1.771126	0.279393	
0.496394	0.553174	0.858980	0.471327	0.267249	1.773421	0.279408	
0.499267	0.554114	0.856436	0.471561	0.268344	1.777669	0.279574	
0.500733	0.554029	0.856593	0.471566	0.268306	1.777776	0.279514	
0.503606	0.553199	0.858786	0.471448	0.267452	1.774872	0.279287	
0.507813	0.552264	0.861243	0.471266	0.266448	1.771300	0.279061	
0.512019	0.552359	0.859742	0.471354	0.267214	1.776285	0.278653	
0.514892	0.552697	0.858075	0.471503	0.268030	1.780735	0.278441	
0.516358	0.552514	0.858604	0.471476	0.267820	1.779882	0.278411	
0.519231	0.551996	0.860485	0.471295	0.266936	1.775575	0.278502	
0.523438	0.551746	0.861691	0.471063	0.266224	1.771532	0.278728	
0.527644	0.552504	0.859403	0.471121	0.267088	1.774784	0.278879	
0.530517	0.553080	0.858005	0.471150	0.267569	1.776051	0.279106	
0.531983	0.552939	0.858690	0.471032	0.267178	1.773855	0.279227	
0.534856	0.552139	0.860860	0.470923	0.266333	1.770982	0.279015	
0.539063	0.552170	0.860811	0.471248	0.266671	1.773125	0.278834	
0.543269	0.553442	0.857146	0.471659	0.268352	1.780163	0.278940	
0.546142	0.553329	0.857393	0.471386	0.268004	1.778142	0.279061	
0.547608	0.552734	0.858985	0.471069	0.267150	1.774482	0.279046	
0.550481	0.551567	0.861470	0.470707	0.266040	1.771031	0.278668	
0.554688	0.551967	0.860309	0.470788	0.266524	1.772792	0.278743	
0.558894	0.552918	0.857105	0.471065	0.267970	1.779397	0.278698	
0.561767	0.551910	0.858976	0.470800	0.267189	1.777781	0.278245	
0.563233	0.551240	0.860631	0.470646	0.266498	1.775422	0.278064	
0.566106	0.550469	0.861467	0.470582	0.266323	1.776965	0.277460	
0.570313	0.551079	0.858157	0.470794	0.267877	1.785500	0.277037	
0.574519	0.553421	0.855454	0.471458	0.268961	1.784427	0.278532	
0.577392	0.546294	0.859559	0.469037	0.267225	1.798807	0.272989	
0.578858	0.535930	0.863639	0.465632	0.265764	1.827853	0.264379	
0.581731	0.499001	0.866254	0.453055	0.265830	1.981010	0.232100	
0.585938	0.395852	0.867717	0.416962	0.267937	2.574703	0.154115	
0.590144	0.287651	0.870204	0.377593	0.268680	3.624281	0.090660	
0.593017	0.234514	0.873445	0.356778	0.267322	4.459045	0.065541	
0.594483	0.216662	0.872243	0.349560	0.267141	4.834826	0.057853	
0.597356	0.192463	0.870805	0.339777	0.266805	5.454741	0.048065	
0.601563	0.174277	0.867865	0.331897	0.266265	6.024360	0.041222	
0.605769	0.167086	0.863562	0.329060	0.266759	6.299532	0.038579	
0.608642	0.165945	0.858619	0.329028	0.267858	6.373188	0.038081	
0.610108	0.166343	0.855239	0.329297	0.268463	6.369243	0.038186	
0.612981	0.165990	0.853722	0.329347	0.268856	6.396384	0.038020	
0.617188	0.165451	0.857461	0.329032	0.268209	6.399430	0.037884	
0.621394	0.165973	0.860598	0.328345	0.266883	6.345819	0.038171	
0.624267	0.165962	0.863125	0.327697	0.265878	6.325519	0.038232	
0.625733	0.165435	0.865644	0.327217	0.265233	6.329181	0.038096	
0.628606	0.164534	0.868098	0.327096	0.265100	6.363184	0.037779	
0.632813	0.165126	0.862015	0.328259	0.266909	6.379242	0.037869	
0.637019	0.166529	0.850634	0.329602	0.269354	6.383491	0.038186	
0.639892	0.166527	0.849983	0.329562	0.269406	6.388264	0.038171	
0.641358	0.166095	0.852335	0.329288	0.268956	6.394539	0.038050	
0.644231	0.165042	0.859429	0.328718	0.267767	6.407537	0.037764	
0.648438	0.165055	0.864952	0.328111	0.266368	6.368826	0.037884	
0.652644	0.165899	0.863005	0.327894	0.266116	6.330432	0.038202	
0.655517	0.165876	0.862741	0.327803	0.266070	6.333577	0.038186	
0.656983	0.165565	0.863172	0.327875	0.266197	6.348937	0.038066	
0.659856	0.164882	0.862968	0.328378	0.266983	6.395120	0.037764	
0.664063	0.165416	0.856375	0.328972	0.268316	6.401625	0.037869	
0.668269	0.166459	0.850822	0.329062	0.268813	6.373236	0.038202	
0.671142	0.166232	0.855103	0.328553	0.267779	6.360777	0.038186	
0.672608	0.165763	0.858884	0.328287	0.267147	6.364107	0.038066	
0.675481	0.164704	0.866333	0.327728	0.265920	6.376376	0.037779	
0.679688	0.164748	0.867807	0.327120	0.265085	6.350063	0.037869	
0.683894	0.165904	0.859812	0.327475	0.266151	6.330832	0.038202	
0.686767	0.166129	0.855949	0.328140	0.267283	6.352927	0.038186	
0.688233	0.165916	0.855192	0.328561	0.267889	6.375852	0.038066	
0.691106	0.165283	0.855688	0.329026	0.268516	6.416253	0.037794	
0.695313	0.165291	0.856177	0.328690	0.268108	6.401969	0.037839	
0.699519	0.166080	0.856422	0.327923	0.267016	6.344293	0.038202	
0.702392	0.165977	0.860151	0.327537	0.266137	6.331497	0.038217	
0.703858	0.165537	0.863558	0.327382	0.265659	6.336973	0.038096	
0.706731	0.164653	0.868670	0.327183	0.265060	6.357570	0.037824	
0.710938	0.164900	0.865292	0.327542	0.265809	6.361807	0.037869	
0.715144	0.166370	0.852550	0.328661	0.268199	6.361511	0.038217	
0.718017	0.166638	0.849070	0.329192	0.269125	6.377153	0.038232	
0.719483	0.166291	0.850607	0.329244	0.269085	6.389897	0.038111	
0.722356	0.165361	0.856392	0.328916	0.268277	6.407340	0.037839	
0.726563	0.165102	0.861822	0.327883	0.266569	6.372400	0.037884	
0.730769	0.165813	0.860580	0.327115	0.265715	6.323848	0.038202	
0.733642	0.165762	0.861155	0.326960	0.265496	6.324821	0.038186	
0.735108	0.165405	0.862685	0.326988	0.265438	6.336657	0.038066	
0.737981	0.164691	0.863526	0.327459	0.266056	6.380302	0.037764	
0.742188	0.165320	0.856399	0.328480	0.267856	6.394241	0.037869	
0.746394	0.166555	0.848691	0.329258	0.269275	6.380611	0.038202	
0.749267	0.166365	0.852870	0.328924	0.268418	6.370929	0.038186	
0.750733	0.165898	0.856695	0.328681	0.267802	6.374508	0.038066	
0.753606	0.164794	0.864719	0.328171	0.266559	6.388350	0.037764	
0.757813	0.164825	0.866941	0.327202	0.265262	6.351068	0.037884	
0.762019	0.165875	0.860169	0.327168	0.265803	6.323725	0.038217	
0.764892	0.166024	0.857104	0.327745	0.266762	6.344865	0.038186	
0.766358	0.165703	0.856977	0.328101	0.267254	6.369360	0.038035	
0.769231	0.165211	0.856040	0.329143	0.268609	6.420720	0.037764	
0.773438	0.165857	0.853137	0.329584	0.269225	6.405925	0.037960	
0.777644	0.166253	0.857395	0.328886	0.267778	6.357447	0.038202	
0.780517	0.165690	0.864583	0.328498	0.266571	6.353554	0.038081	
0.781983	0.165255	0.866392	0.328714	0.266691	6.369422	0.037930	
0.784856	0.164609	0.867701	0.328133	0.266166	6.383919	0.037733	
0.789063	0.165890	0.866103	0.328116	0.265896	6.324896	0.038217	
0.793269	0.166045	0.861892	0.328890	0.267217	6.351373	0.038171	
0.796142	0.164768	0.857544	0.329213	0.268630	6.436379	0.037612	
0.797608	0.164317	0.853279	0.328914	0.269096	6.466838	0.037416	
0.800481	0.166830	0.849919	0.329666	0.269410	6.372200	0.038292	
0.804688	0.166457	0.861634	0.329488	0.267698	6.348652	0.038277	
0.808894	0.163530	0.870199	0.327971	0.266054	6.425240	0.037356	
0.811767	0.164723	0.864228	0.328543	0.267028	6.397788	0.037718	
0.813233	0.167970	0.852939	0.329693	0.268594	6.313256	0.038745	
0.816106	0.167921	0.875281	0.331949	0.267626	6.290507	0.038806	
0.820313	0.161052	0.856953	0.322212	0.263076	6.453912	0.036691	
0.824519	0.169449	0.843618	0.336876	0.276578	6.439631	0.038700	
0.827392	0.171077	0.906513	0.338958	0.268666	6.196354	0.039863	
0.828858	0.170062	0.908439	0.345748	0.275575	6.393680	0.038987	
0.831731	0.132430	0.339031	0.177491	0.169880	5.071325	0.033972	
0.835938	0.118726	-0.079711	0.080814	0.080436	2.670876	0.042204	
0.840144	0.126290	0.102492	0.116346	0.115683	3.615370	0.038489	
0.843017	0.121920	-0.008645	0.097113	0.097108	3.142398	0.039893	
0.844483	0.114219	-0.140897	0.080557	0.079424	2.743792	0.039999	
0.847356	0.123794	0.044225	0.104957	0.104836	3.342396	0.039259	
0.851563	0.120988	-0.007820	0.097536	0.097532	3.180669	0.039334	
0.855769	0.121226	-0.004661	0.097898	0.097896	3.186071	0.039380	
0.858642	0.123001	0.026614	0.102117	0.102073	3.275160	0.039410	
0.860108	0.121052	-0.006824	0.098126	0.098123	3.198366	0.039244	
0.862981	0.121188	-0.005337	0.097854	0.097852	3.186444	0.039365	
0.867188	0.121682	0.003817	0.099064	0.099063	3.212453	0.039365	
0.871394	0.121337	-0.002601	0.098232	0.098231	3.194285	0.039365	
0.874267	0.121451	-0.000448	0.098496	0.098496	3.200268	0.039365	
0.875733	0.121694	0.003883	0.099085	0.099084	3.213110	0.039365	
0.878606	0.121417	-0.001061	0.098426	0.098426	3.198506	0.039365	
0.882813	0.121488	0.000187	0.098590	0.098590	3.202233	0.039365	
0.887019	0.121491	0.000250	0.098599	0.098599	3.202392	0.039365	
0.889892	0.121429	-0.000857	0.098453	0.098453	3.199109	0.039365	
0.891358	0.121484	0.000101	0.098578	0.098578	3.202031	0.039365	
0.894231	0.121491	0.000262	0.098601	0.098601	3.202410	0.039365	
0.898438	0.121468	-0.000167	0.098544	0.098544	3.201184	0.039365	
0.902644	0.121484	0.000114	0.098581	0.098581	3.201993	0.039365	
0.905517	0.121480	0.000043	0.098572	0.098572	3.201792	0.039365	
0.906983	0.121467	-0.000186	0.098541	0.098541	3.201113	0.039365	
0.909856	0.121480	0.000045	0.098572	0.098572	3.201801	0.039365	
0.914063	0.121477	-0.000006	0.098565	0.098565	3.201645	0.039365	
0.918269	0.121477	-0.000013	0.098564	0.098564	3.201626	0.039365	
0.921142	0.121479	0.000039	0.098571	0.098571	3.201781	0.039365	
0.922608	0.121477	-0.000003	0.098565	0.098565	3.201652	0.039365	
0.925481	0.121477	-0.000012	0.098564	0.098564	3.201630	0.039365	
0.929688	0.121478	0.000007	0.098567	0.098567	3.201686	0.039365	
0.933894	0.121477	-0.000005	0.098565	0.098565	3.201650	0.039365	
0.936767	0.121477	-0.000002	0.098565	0.098565	3.201658	0.039365	
0.938233	0.121478	0.000008	0.098567	0.098567	3.201688	0.039365	
0.941106	0.121477	-0.000002	0.098565	0.098565	3.201659	0.039365	
0.945313	0.121477	0.000000	0.098566	0.098566	3.201665	0.039365	
0.949519	0.121477	0.000001	0.098566	0.098566	3.201666	0.039365	
0.952392	0.121477	-0.000002	0.098565	0.098565	3.201660	0.039365	
0.953858	0.121477	-0.000000	0.098566	0.098566	3.201665	0.039365	
0.956731	0.121477	0.000001	0.098566	0.098566	3.201666	0.039365	
0.960938	0.121477	-0.000000	0.098566	0.098566	3.201663	0.039365	
0.965144	0.121477	0.000000	0.098566	0.098566	3.201665	0.039365	
0.968017	0.121477	0.000000	0.098566	0.098566	3.201665	0.039365	
0.969483	0.121477	-0.000000	0.098566	0.098566	3.201663	0.039365	
0.972356	0.121477	0.000000	0.098566	0.098566	3.201665	0.039365	
0.976563	0.121477	-0.000000	0.098566	0.098566	3.201664	0.039365	
0.980769	0.121477	-0.000000	0.098566	0.098566	3.201664	0.039365	
0.983642	0.121477	0.000000	0.098566	0.098566	3.201665	0.039365	
0.985108	0.121477	0.000000	0.098566	0.098566	3.201664	0.039365	
0.987981	0.121477	-0.000000	0.098566	0.098566	3.201664	0.039365	
0.992188	0.121477	0.000000	0.098566	0.098566	3.201664	0.039365	
0.996394	0.121477	-0.000000	0.098566	0.098566	3.201664	0.039365	
0.999267	0.121477	-0.000000	0.098566	0.098566	3.201664	0.039365	
