TITLE = "DG1DMBX32-P4RK4w100iv80"
VARIABLES = "x" "Density" "Velocity in x" "Energy" "Pressure" "Temperature" "Fugacity"
ZONE T = "Final Time 0.10"
I = 160, J = 1, K = 1, F = POINT

0.001466	0.999998	0.000005	0.999989	0.999989	3.999961	0.282096	
0.007211	0.999998	0.000007	0.999986	0.999986	3.999952	0.282096	
0.015625	0.999997	0.000010	0.999980	0.999980	3.999932	0.282096	
0.024039	0.999996	0.000015	0.999972	0.999972	3.999903	0.282097	
0.029784	0.999995	0.000019	0.999964	0.999964	3.999876	0.282098	
0.032716	0.999994	0.000022	0.999959	0.999959	3.999859	0.282098	
0.038461	0.999992	0.000029	0.999947	0.999947	3.999818	0.282099	
0.046875	0.999988	0.000043	0.999922	0.999922	3.999735	0.282101	
0.055289	0.999982	0.000064	0.999885	0.999885	3.999612	0.282104	
0.061034	0.999977	0.000084	0.999851	0.999851	3.999497	0.282106	
0.063966	0.999973	0.000096	0.999829	0.999829	3.999425	0.282108	
0.069711	0.999965	0.000126	0.999778	0.999778	3.999252	0.282111	
0.078125	0.999947	0.000188	0.999672	0.999672	3.998903	0.282118	
0.086539	0.999920	0.000280	0.999518	0.999518	3.998391	0.282129	
0.092284	0.999894	0.000367	0.999372	0.999372	3.997911	0.282139	
0.095216	0.999878	0.000421	0.999282	0.999282	3.997614	0.282144	
0.100961	0.999839	0.000552	0.999067	0.999067	3.996910	0.282158	
0.109375	0.999759	0.000816	0.998635	0.998635	3.995503	0.282185	
0.117789	0.999641	0.001200	0.998015	0.998015	3.993492	0.282223	
0.123534	0.999531	0.001557	0.997447	0.997446	3.991656	0.282257	
0.126466	0.999462	0.001776	0.997101	0.997099	3.990543	0.282277	
0.132211	0.999301	0.002290	0.996293	0.996291	3.987951	0.282323	
0.140625	0.998981	0.003297	0.994732	0.994726	3.982966	0.282409	
0.149039	0.998529	0.004695	0.992598	0.992587	3.976195	0.282522	
0.154784	0.998124	0.005935	0.990732	0.990714	3.970304	0.282617	
0.157716	0.997882	0.006673	0.989631	0.989609	3.966839	0.282671	
0.163461	0.997324	0.008355	0.987146	0.987111	3.959042	0.282791	
0.171875	0.996276	0.011472	0.982617	0.982551	3.944895	0.283000	
0.180289	0.994898	0.015511	0.976866	0.976746	3.927020	0.283251	
0.186034	0.993731	0.018886	0.972147	0.971969	3.912403	0.283447	
0.188966	0.993057	0.020821	0.969472	0.969257	3.904132	0.283555	
0.194711	0.991567	0.025065	0.963680	0.963369	3.886248	0.283780	
0.203125	0.988942	0.032445	0.953826	0.953305	3.855858	0.284142	
0.211539	0.985736	0.041328	0.942282	0.941441	3.820254	0.284538	
0.217284	0.983182	0.048319	0.933419	0.932271	3.792872	0.284823	
0.220216	0.981759	0.052186	0.928592	0.927256	3.777934	0.284973	
0.225961	0.978727	0.060369	0.918552	0.916769	3.746779	0.285271	
0.234375	0.973686	0.073819	0.902520	0.899867	3.696745	0.285716	
0.242789	0.967909	0.089038	0.885035	0.881198	3.641659	0.286161	
0.248534	0.963533	0.100448	0.872351	0.867490	3.601291	0.286459	
0.251466	0.961164	0.106586	0.865671	0.860211	3.579873	0.286608	
0.257211	0.956259	0.119226	0.852220	0.845424	3.536381	0.286894	
0.265625	0.948449	0.139166	0.831799	0.822615	3.469305	0.287288	
0.274039	0.939910	0.160749	0.810738	0.798595	3.398601	0.287648	
0.279784	0.933670	0.176392	0.796118	0.781593	3.348476	0.287869	
0.282716	0.930362	0.184647	0.788614	0.772754	3.322380	0.287973	
0.288461	0.923644	0.201336	0.773874	0.755154	3.270323	0.288160	
0.296875	0.913262	0.226946	0.752340	0.728821	3.192168	0.288388	
0.305289	0.902267	0.253855	0.731068	0.701996	3.112143	0.288556	
0.311034	0.894430	0.272919	0.716803	0.683492	3.056662	0.288634	
0.313966	0.890333	0.282847	0.709629	0.674015	3.028146	0.288662	
0.319711	0.882123	0.302675	0.695813	0.655407	2.971950	0.288691	
0.328125	0.869694	0.332528	0.676255	0.628171	2.889160	0.288673	
0.336539	0.856828	0.363240	0.657627	0.601101	2.806169	0.288577	
0.342284	0.847819	0.384635	0.645508	0.582793	2.749611	0.288465	
0.345216	0.843159	0.395669	0.639525	0.573525	2.720837	0.288392	
0.350961	0.833916	0.417491	0.628211	0.555536	2.664709	0.288219	
0.359375	0.820149	0.449834	0.612671	0.529692	2.583393	0.287887	
0.367789	0.806169	0.482488	0.598405	0.504569	2.503542	0.287457	
0.373534	0.796537	0.504872	0.589416	0.487899	2.450102	0.287104	
0.376466	0.791604	0.516299	0.585067	0.479560	2.423232	0.286903	
0.382211	0.781918	0.538660	0.577012	0.463573	2.371467	0.286469	
0.390625	0.767741	0.571194	0.566332	0.441090	2.298118	0.285728	
0.399039	0.753656	0.603256	0.556961	0.419826	2.228211	0.284853	
0.404784	0.744141	0.624747	0.551293	0.406070	2.182760	0.284169	
0.407716	0.739329	0.635554	0.548623	0.399304	2.160360	0.283792	
0.413461	0.730009	0.656356	0.543814	0.386569	2.118158	0.282992	
0.421875	0.716683	0.685745	0.537740	0.369232	2.060779	0.281667	
0.430289	0.703826	0.713595	0.532736	0.353536	2.009225	0.280141	
0.436034	0.695355	0.731587	0.529880	0.343796	1.977673	0.278968	
0.438966	0.691139	0.740414	0.528585	0.339139	1.962784	0.278326	
0.444711	0.683093	0.756976	0.526340	0.330630	1.936075	0.276977	
0.453125	0.671825	0.779389	0.523679	0.319630	1.903054	0.274761	
0.461539	0.661126	0.799568	0.521646	0.310314	1.877489	0.272221	
0.467284	0.654089	0.812088	0.520550	0.304869	1.864390	0.270267	
0.470216	0.650563	0.818096	0.520067	0.302362	1.859078	0.269194	
0.475961	0.643732	0.829180	0.519239	0.297943	1.851352	0.266923	
0.484375	0.633736	0.843958	0.518242	0.292548	1.846494	0.263124	
0.492789	0.623425	0.857360	0.517385	0.288256	1.849502	0.258632	
0.498534	0.615985	0.865947	0.516814	0.285862	1.856292	0.255077	
0.501466	0.612004	0.870215	0.516511	0.284784	1.861320	0.253086	
0.507211	0.603737	0.878451	0.515864	0.282919	1.874453	0.248792	
0.515625	0.590217	0.890478	0.514704	0.280697	1.902332	0.241432	
0.524039	0.574561	0.902833	0.513137	0.278972	1.942158	0.232605	
0.529784	0.562410	0.911634	0.511735	0.278032	1.977430	0.225646	
0.532716	0.555706	0.916272	0.510890	0.277617	1.998305	0.221789	
0.538461	0.541530	0.925675	0.508937	0.276925	2.045503	0.213623	
0.546875	0.518261	0.940196	0.505248	0.276185	2.131631	0.200271	
0.555289	0.492142	0.955472	0.500399	0.275755	2.241263	0.185468	
0.561034	0.472880	0.966171	0.496348	0.275634	2.331535	0.174725	
0.563966	0.462684	0.971650	0.494037	0.275626	2.382847	0.169107	
0.569711	0.442158	0.982294	0.489032	0.275713	2.494247	0.157955	
0.578125	0.411346	0.997215	0.480601	0.276072	2.684571	0.141643	
0.586539	0.380567	1.010578	0.471003	0.276673	2.908002	0.125910	
0.592284	0.360082	1.018351	0.463903	0.277194	3.079233	0.115772	
0.595216	0.349910	1.021788	0.460148	0.277486	3.172090	0.110843	
0.600961	0.330682	1.027334	0.452599	0.278095	3.363904	0.101722	
0.609375	0.304560	1.032267	0.441289	0.279023	3.664611	0.089760	
0.617789	0.281216	1.033083	0.429981	0.279915	3.981493	0.079514	
0.623534	0.266978	1.031219	0.422416	0.280462	4.202032	0.073480	
0.626466	0.260248	1.029538	0.418638	0.280713	4.314547	0.070688	
0.632211	0.248093	1.024891	0.411436	0.281137	4.532777	0.065744	
0.640625	0.232656	1.015205	0.401466	0.281574	4.841037	0.059658	
0.649039	0.219801	1.002770	0.392279	0.281768	5.127702	0.054764	
0.654784	0.212356	0.993134	0.386485	0.281760	5.307314	0.052006	
0.657716	0.208934	0.987965	0.383680	0.281712	5.393322	0.050758	
0.663461	0.202903	0.977497	0.378475	0.281538	5.550183	0.048592	
0.671875	0.195506	0.961768	0.371523	0.281102	5.751262	0.045994	
0.680289	0.189551	0.946080	0.365305	0.280475	5.918716	0.043958	
0.686034	0.186174	0.935602	0.361432	0.279949	6.014775	0.042829	
0.688966	0.184636	0.930359	0.359559	0.279652	6.058444	0.042322	
0.694711	0.181941	0.920312	0.356067	0.279017	6.134244	0.041445	
0.703125	0.178642	0.906154	0.351308	0.277965	6.223947	0.040400	
0.711539	0.175956	0.892567	0.346852	0.276762	6.291604	0.039578	
0.717284	0.174394	0.883510	0.343910	0.275845	6.326918	0.039117	
0.720216	0.173666	0.878921	0.342423	0.275344	6.341907	0.038907	
0.725961	0.172350	0.869926	0.339504	0.274290	6.365862	0.038540	
0.734375	0.170628	0.856516	0.335133	0.272545	6.389228	0.038085	
0.742789	0.169062	0.842405	0.330493	0.270506	6.400148	0.037703	
0.748534	0.168038	0.832088	0.327074	0.268902	6.400973	0.037472	
0.751466	0.167520	0.826535	0.325228	0.268006	6.399365	0.037361	
0.757211	0.166500	0.814955	0.321365	0.266075	6.392192	0.037155	
0.765625	0.164949	0.795884	0.314990	0.262748	6.371611	0.036868	
0.774039	0.163268	0.773498	0.307523	0.258681	6.337592	0.036590	
0.779784	0.162007	0.755761	0.301640	0.255373	6.305244	0.036401	
0.782716	0.161319	0.745798	0.298354	0.253490	6.285419	0.036303	
0.788461	0.159869	0.724186	0.291278	0.249357	6.239016	0.036110	
0.796875	0.157461	0.686685	0.279193	0.242069	6.149301	0.035825	
0.805289	0.154646	0.640596	0.264701	0.232971	6.025933	0.035543	
0.811034	0.152459	0.603234	0.253253	0.225514	5.916702	0.035362	
0.813966	0.151255	0.582082	0.246892	0.221268	5.851504	0.035278	
0.819711	0.148734	0.536406	0.233443	0.212046	5.702678	0.035140	
0.828125	0.144677	0.459059	0.211541	0.196297	5.427162	0.035038	
0.836539	0.140385	0.371618	0.188021	0.178327	5.081113	0.035137	
0.842284	0.137499	0.309377	0.172029	0.165449	4.813106	0.035360	
0.845216	0.136098	0.278108	0.164216	0.158953	4.671724	0.035525	
0.850961	0.133578	0.220011	0.150068	0.146836	4.396993	0.035940	
0.859375	0.130625	0.148582	0.133284	0.131842	4.037287	0.036678	
0.867789	0.128568	0.096560	0.121448	0.120848	3.759816	0.037409	
0.873534	0.127606	0.071475	0.115838	0.115512	3.620908	0.037834	
0.876466	0.127220	0.061246	0.113569	0.113330	3.563284	0.038024	
0.882211	0.126627	0.045383	0.110064	0.109933	3.472672	0.038337	
0.890625	0.126043	0.029525	0.106573	0.106518	3.380363	0.038678	
0.899039	0.125680	0.019496	0.104366	0.104342	3.320873	0.038910	
0.904784	0.125512	0.014798	0.103330	0.103316	3.292634	0.039025	
0.907716	0.125444	0.012892	0.102909	0.102898	3.281092	0.039072	
0.913461	0.125338	0.009885	0.102243	0.102237	3.262752	0.039149	
0.921875	0.125229	0.006768	0.101549	0.101546	3.243549	0.039230	
0.930289	0.125157	0.004689	0.101083	0.101082	3.230571	0.039286	
0.936034	0.125122	0.003668	0.100853	0.100852	3.224135	0.039314	
0.938966	0.125107	0.003242	0.100757	0.100756	3.221433	0.039326	
0.944711	0.125084	0.002553	0.100600	0.100600	3.217035	0.039346	
0.953125	0.125059	0.001811	0.100430	0.100430	3.212253	0.039367	
0.961539	0.125042	0.001293	0.100311	0.100311	3.208879	0.039382	
0.967284	0.125033	0.001030	0.100250	0.100250	3.207153	0.039390	
0.970216	0.125029	0.000918	0.100224	0.100224	3.206415	0.039394	
0.975961	0.125023	0.000733	0.100181	0.100181	3.205197	0.039399	
0.984375	0.125017	0.000528	0.100134	0.100134	3.203844	0.039406	
0.992789	0.125013	0.000377	0.100100	0.100100	3.202875	0.039410	
0.998534	0.125010	0.000297	0.100083	0.100083	3.202379	0.039413	
