TITLE = "DG1DMBX64-P4RK4w100iv80"
VARIABLES = "x" "Density" "Velocity in x" "Energy" "Pressure" "Temperature" "Fugacity"
ZONE T = "Final Time 0.10"
I = 320, J = 1, K = 1, F = POINT

0.000733	0.999999	0.000005	0.999989	0.999989	3.999964	0.282096	
0.003606	0.999998	0.000006	0.999988	0.999988	3.999959	0.282096	
0.007813	0.999998	0.000007	0.999986	0.999986	3.999952	0.282096	
0.012019	0.999998	0.000009	0.999983	0.999983	3.999943	0.282096	
0.014892	0.999997	0.000010	0.999981	0.999981	3.999935	0.282096	
0.016358	0.999997	0.000011	0.999980	0.999980	3.999931	0.282096	
0.019231	0.999997	0.000012	0.999977	0.999977	3.999922	0.282097	
0.023438	0.999996	0.000015	0.999973	0.999973	3.999906	0.282097	
0.027644	0.999995	0.000018	0.999967	0.999967	3.999887	0.282097	
0.030517	0.999995	0.000020	0.999962	0.999962	3.999872	0.282098	
0.031983	0.999994	0.000022	0.999960	0.999960	3.999863	0.282098	
0.034856	0.999993	0.000025	0.999954	0.999954	3.999845	0.282098	
0.039063	0.999992	0.000030	0.999945	0.999945	3.999813	0.282099	
0.043269	0.999990	0.000037	0.999934	0.999934	3.999774	0.282100	
0.046142	0.999989	0.000042	0.999924	0.999924	3.999743	0.282101	
0.047608	0.999988	0.000045	0.999919	0.999919	3.999725	0.282101	
0.050481	0.999986	0.000051	0.999908	0.999908	3.999687	0.282102	
0.054688	0.999983	0.000062	0.999888	0.999888	3.999621	0.282103	
0.058894	0.999979	0.000076	0.999864	0.999864	3.999542	0.282105	
0.061767	0.999976	0.000087	0.999845	0.999845	3.999478	0.282106	
0.063233	0.999974	0.000093	0.999835	0.999835	3.999442	0.282107	
0.066106	0.999970	0.000107	0.999811	0.999811	3.999364	0.282109	
0.070313	0.999963	0.000130	0.999771	0.999771	3.999230	0.282112	
0.074519	0.999955	0.000159	0.999722	0.999722	3.999067	0.282115	
0.077392	0.999948	0.000182	0.999682	0.999682	3.998936	0.282118	
0.078858	0.999945	0.000195	0.999660	0.999660	3.998862	0.282119	
0.081731	0.999936	0.000224	0.999612	0.999612	3.998703	0.282123	
0.085938	0.999922	0.000273	0.999529	0.999529	3.998430	0.282128	
0.090144	0.999904	0.000333	0.999429	0.999429	3.998100	0.282135	
0.093017	0.999890	0.000381	0.999349	0.999349	3.997837	0.282140	
0.094483	0.999882	0.000408	0.999304	0.999304	3.997688	0.282143	
0.097356	0.999864	0.000467	0.999207	0.999206	3.997368	0.282149	
0.101563	0.999834	0.000569	0.999039	0.999039	3.996820	0.282160	
0.105769	0.999797	0.000692	0.998837	0.998837	3.996161	0.282173	
0.108642	0.999767	0.000790	0.998677	0.998676	3.995638	0.282183	
0.110108	0.999750	0.000846	0.998587	0.998587	3.995346	0.282188	
0.112981	0.999713	0.000965	0.998394	0.998393	3.994718	0.282200	
0.117188	0.999650	0.001170	0.998064	0.998064	3.993650	0.282220	
0.121394	0.999574	0.001416	0.997671	0.997670	3.992381	0.282244	
0.124267	0.999514	0.001612	0.997361	0.997359	3.991379	0.282262	
0.125733	0.999479	0.001721	0.997188	0.997186	3.990822	0.282272	
0.128606	0.999406	0.001956	0.996817	0.996815	3.989631	0.282293	
0.132813	0.999280	0.002355	0.996192	0.996190	3.987628	0.282329	
0.137019	0.999130	0.002828	0.995457	0.995453	3.985277	0.282370	
0.139892	0.999012	0.003199	0.994882	0.994877	3.983446	0.282401	
0.141358	0.998946	0.003406	0.994565	0.994559	3.982435	0.282418	
0.144231	0.998804	0.003846	0.993890	0.993883	3.980292	0.282454	
0.148438	0.998565	0.004584	0.992767	0.992756	3.976730	0.282513	
0.152644	0.998284	0.005448	0.991464	0.991449	3.972612	0.282580	
0.155517	0.998064	0.006118	0.990460	0.990441	3.969448	0.282630	
0.156983	0.997943	0.006487	0.989909	0.989888	3.967714	0.282657	
0.159856	0.997685	0.007268	0.988750	0.988724	3.964073	0.282714	
0.164063	0.997256	0.008557	0.986851	0.986814	3.958118	0.282805	
0.168269	0.996759	0.010039	0.984689	0.984639	3.951361	0.282906	
0.171142	0.996377	0.011172	0.983050	0.982988	3.946249	0.282981	
0.172608	0.996168	0.011790	0.982160	0.982091	3.943476	0.283021	
0.175481	0.995728	0.013085	0.980306	0.980221	3.937705	0.283103	
0.179688	0.995006	0.015194	0.977314	0.977200	3.928415	0.283232	
0.183894	0.994186	0.017572	0.973976	0.973823	3.918070	0.283372	
0.186767	0.993565	0.019362	0.971488	0.971302	3.910370	0.283474	
0.188233	0.993228	0.020330	0.970151	0.969946	3.906236	0.283527	
0.191106	0.992527	0.022336	0.967395	0.967148	3.897721	0.283636	
0.195313	0.991395	0.025550	0.963027	0.962704	3.884238	0.283804	
0.199519	0.990133	0.029108	0.958252	0.957832	3.869508	0.283982	
0.202392	0.989192	0.031746	0.954750	0.954252	3.858712	0.284109	
0.203858	0.988686	0.033159	0.952888	0.952344	3.852970	0.284175	
0.206731	0.987642	0.036062	0.949088	0.948446	3.841253	0.284307	
0.210938	0.985985	0.040643	0.943164	0.942350	3.822979	0.284508	
0.215144	0.984168	0.045626	0.936814	0.935790	3.803372	0.284715	
0.218017	0.982834	0.049266	0.932235	0.931042	3.789213	0.284859	
0.219483	0.982123	0.051199	0.929822	0.928535	3.781748	0.284934	
0.222356	0.980669	0.055136	0.924949	0.923458	3.766646	0.285082	
0.226563	0.978392	0.061266	0.917467	0.915631	3.743410	0.285302	
0.230769	0.975937	0.067832	0.909588	0.907342	3.718856	0.285524	
0.233642	0.974156	0.072570	0.903987	0.901421	3.701344	0.285676	
0.235108	0.973214	0.075067	0.901062	0.898320	3.692178	0.285754	
0.237981	0.971303	0.080117	0.895205	0.892088	3.673776	0.285906	
0.242188	0.968348	0.087883	0.886340	0.882600	3.645797	0.286128	
0.246394	0.965207	0.096091	0.877154	0.872698	3.616626	0.286348	
0.249267	0.962953	0.101950	0.870709	0.865705	3.596041	0.286496	
0.250733	0.961769	0.105018	0.867370	0.862066	3.585334	0.286570	
0.253606	0.959383	0.111185	0.860732	0.854802	3.563963	0.286715	
0.257813	0.955731	0.120580	0.850804	0.843856	3.531774	0.286922	
0.262019	0.951891	0.130402	0.840658	0.832565	3.498572	0.287122	
0.264892	0.949163	0.137349	0.833621	0.824668	3.475348	0.287255	
0.266358	0.947739	0.140969	0.830000	0.820584	3.463333	0.287320	
0.269231	0.944883	0.148204	0.822852	0.812475	3.439475	0.287446	
0.273438	0.940549	0.159138	0.812275	0.800365	3.403822	0.287623	
0.277644	0.936038	0.170465	0.801596	0.787996	3.367367	0.287789	
0.280517	0.932857	0.178422	0.794260	0.779412	3.342040	0.287895	
0.281983	0.931203	0.182550	0.790507	0.774992	3.328990	0.287948	
0.284856	0.927902	0.190769	0.783141	0.766257	3.303178	0.288046	
0.289063	0.922928	0.203107	0.772343	0.753307	3.264854	0.288178	
0.293269	0.917793	0.215793	0.761560	0.740191	3.225960	0.288297	
0.296142	0.914196	0.224649	0.754220	0.731151	3.199102	0.288370	
0.297608	0.912333	0.229227	0.750485	0.726515	3.185310	0.288405	
0.300481	0.908628	0.238311	0.743191	0.717389	3.158122	0.288467	
0.304688	0.903077	0.251878	0.732586	0.703939	3.117956	0.288546	
0.308894	0.897383	0.265745	0.722094	0.690408	3.077426	0.288608	
0.311767	0.893415	0.275379	0.715009	0.681134	3.049573	0.288642	
0.313233	0.891366	0.280344	0.711421	0.676394	3.035312	0.288655	
0.316106	0.887305	0.290169	0.704449	0.667094	3.007283	0.288676	
0.320313	0.881253	0.304770	0.694393	0.653465	2.966076	0.288692	
0.324519	0.875080	0.319613	0.684536	0.639841	2.924719	0.288689	
0.327392	0.870798	0.329883	0.677929	0.630548	2.896416	0.288677	
0.328858	0.868592	0.335163	0.674598	0.625812	2.881959	0.288667	
0.331731	0.864233	0.345585	0.668154	0.616547	2.853615	0.288641	
0.335938	0.857761	0.361016	0.658926	0.603029	2.812109	0.288586	
0.340144	0.851193	0.376630	0.649962	0.589592	2.770660	0.288510	
0.343017	0.846656	0.387388	0.644000	0.580471	2.742418	0.288447	
0.344483	0.844326	0.392905	0.641008	0.575837	2.728032	0.288410	
0.347356	0.839732	0.403767	0.635248	0.566798	2.699901	0.288331	
0.351563	0.832940	0.419785	0.627062	0.553672	2.658878	0.288197	
0.355769	0.826078	0.435923	0.619179	0.540690	2.618105	0.288040	
0.358642	0.821356	0.447002	0.613975	0.531917	2.590434	0.287919	
0.360108	0.818936	0.452671	0.611376	0.527472	2.576377	0.287853	
0.362981	0.814176	0.463804	0.606397	0.518827	2.548966	0.287714	
0.367188	0.807169	0.480154	0.599380	0.506334	2.509187	0.287490	
0.371394	0.800125	0.496538	0.592691	0.494056	2.469891	0.287239	
0.374267	0.795300	0.507734	0.588314	0.485802	2.443364	0.287053	
0.375733	0.792834	0.513447	0.586139	0.481633	2.429931	0.286953	
0.378606	0.787995	0.524637	0.581995	0.473549	2.403819	0.286746	
0.382813	0.780900	0.540999	0.576204	0.461927	2.366129	0.286419	
0.387019	0.773805	0.557303	0.570745	0.450579	2.329160	0.286060	
0.389892	0.768966	0.568385	0.567208	0.442996	2.304372	0.285796	
0.391358	0.766501	0.574020	0.565462	0.439181	2.291875	0.285655	
0.394231	0.761680	0.585019	0.562156	0.431814	2.267696	0.285368	
0.398438	0.754649	0.600997	0.557586	0.421297	2.233075	0.284917	
0.402644	0.747665	0.616797	0.553334	0.411114	2.199454	0.284430	
0.405517	0.742928	0.627468	0.550610	0.404358	2.177107	0.284074	
0.406983	0.740522	0.632873	0.549275	0.400975	2.165904	0.283886	
0.409856	0.735832	0.643375	0.546765	0.394473	2.144364	0.283501	
0.414063	0.729033	0.658517	0.543340	0.385269	2.113863	0.282901	
0.418269	0.722331	0.673339	0.540204	0.376457	2.084679	0.282255	
0.421142	0.717815	0.683259	0.538223	0.370670	2.065544	0.281787	
0.422608	0.715531	0.688254	0.537261	0.367790	2.056038	0.281539	
0.425481	0.711099	0.697902	0.535469	0.362292	2.037930	0.281035	
0.429688	0.704716	0.711677	0.533058	0.354595	2.012696	0.280253	
0.433894	0.698467	0.725006	0.530891	0.347322	1.989054	0.279414	
0.436767	0.694281	0.733836	0.529544	0.342604	1.973861	0.278806	
0.438233	0.692173	0.738251	0.528897	0.340275	1.966417	0.278485	
0.441106	0.688094	0.746719	0.527703	0.335866	1.952442	0.277833	
0.445313	0.682253	0.758670	0.526125	0.329779	1.933471	0.276823	
0.449519	0.676566	0.770075	0.524734	0.324127	1.916309	0.275742	
0.452392	0.672769	0.777542	0.523883	0.320515	1.905645	0.274960	
0.453858	0.670858	0.781251	0.523478	0.318748	1.900538	0.274548	
0.456731	0.667163	0.788324	0.522738	0.315432	1.891186	0.273709	
0.460938	0.661860	0.798216	0.521773	0.310921	1.879078	0.272407	
0.465144	0.656673	0.807558	0.520934	0.306809	1.868872	0.271009	
0.468017	0.653190	0.813626	0.520425	0.304223	1.863000	0.269996	
0.469483	0.651427	0.816629	0.520183	0.302970	1.860346	0.269460	
0.472356	0.647996	0.822339	0.519741	0.300640	1.855816	0.268367	
0.476563	0.643005	0.830302	0.519160	0.297516	1.850787	0.266662	
0.480769	0.638022	0.837826	0.518644	0.294714	1.847672	0.264819	
0.483642	0.634601	0.842737	0.518321	0.292972	1.846653	0.263471	
0.485108	0.632843	0.845181	0.518163	0.292133	1.846484	0.262753	
0.487981	0.629364	0.849854	0.517865	0.290585	1.846849	0.261283	
0.492188	0.624165	0.856446	0.517444	0.288532	1.849073	0.258969	
0.496394	0.618792	0.862794	0.517029	0.286710	1.853356	0.256443	
0.499267	0.614988	0.867024	0.516739	0.285586	1.857506	0.254581	
0.500733	0.612998	0.869157	0.516587	0.285047	1.860021	0.253586	
0.503606	0.608988	0.873300	0.516279	0.284055	1.865753	0.251540	
0.507813	0.602818	0.879309	0.515790	0.282745	1.876153	0.248300	
0.512019	0.596231	0.885308	0.515239	0.281585	1.889104	0.244744	
0.514892	0.591458	0.889426	0.514817	0.280872	1.899525	0.242118	
0.516358	0.588930	0.891539	0.514585	0.280532	1.905365	0.240713	
0.519231	0.583784	0.895712	0.514091	0.279907	1.917879	0.237830	
0.523438	0.575750	0.901929	0.513264	0.279085	1.938932	0.233280	
0.527644	0.567073	0.908312	0.512291	0.278365	1.963517	0.228322	
0.530517	0.560756	0.912782	0.511530	0.277927	1.982517	0.224693	
0.531983	0.557405	0.915099	0.511108	0.277720	1.992950	0.222765	
0.534856	0.550581	0.919720	0.510209	0.277345	2.014925	0.218835	
0.539063	0.539960	0.926680	0.508707	0.276865	2.051006	0.212717	
0.543269	0.528590	0.933863	0.506959	0.276467	2.092108	0.206183	
0.546142	0.520401	0.938891	0.505611	0.276241	2.123290	0.201492	
0.547608	0.516092	0.941492	0.504873	0.276139	2.140231	0.199032	
0.550481	0.507398	0.946656	0.503321	0.275967	2.175546	0.194084	
0.554688	0.494097	0.954353	0.500788	0.275778	2.232585	0.186566	
0.558894	0.480178	0.962164	0.497930	0.275666	2.296362	0.178775	
0.561767	0.470358	0.967531	0.495787	0.275632	2.344013	0.173330	
0.563233	0.465260	0.970272	0.494632	0.275628	2.369663	0.170521	
0.566106	0.455121	0.975628	0.492249	0.275645	2.422612	0.164972	
0.570313	0.439987	0.983382	0.488475	0.275733	2.506733	0.156787	
0.574519	0.424622	0.990946	0.484373	0.275889	2.598912	0.148604	
0.577392	0.414061	0.995950	0.481390	0.276033	2.666592	0.143058	
0.578858	0.408666	0.998440	0.479814	0.276118	2.702624	0.140249	
0.581731	0.398110	1.003172	0.476625	0.276305	2.776168	0.134805	
0.585938	0.382761	1.009684	0.471731	0.276625	2.890836	0.127011	
0.590144	0.367655	1.015598	0.466600	0.276993	3.013623	0.119487	
0.593017	0.357539	1.019236	0.462981	0.277268	3.101965	0.114533	
0.594483	0.352452	1.020955	0.461104	0.277414	3.148392	0.112068	
0.597356	0.342653	1.024034	0.457372	0.277711	3.241889	0.107370	
0.601563	0.328755	1.027806	0.451809	0.278163	3.384442	0.100822	
0.605769	0.315457	1.030637	0.446168	0.278627	3.532989	0.094688	
0.608642	0.306753	1.031997	0.442293	0.278945	3.637386	0.090744	
0.610108	0.302435	1.032506	0.440313	0.279106	3.691452	0.088809	
0.612981	0.294222	1.033134	0.436438	0.279417	3.798723	0.085169	
0.617188	0.282808	1.033165	0.430796	0.279857	3.958255	0.080198	
0.621394	0.272139	1.032142	0.425226	0.280269	4.119496	0.075647	
0.624267	0.265283	1.030851	0.421481	0.280529	4.229882	0.072773	
0.625733	0.261919	1.030011	0.419593	0.280655	4.286132	0.071377	
0.628606	0.255585	1.028022	0.415939	0.280885	4.395945	0.068776	
0.632813	0.246919	1.024324	0.410718	0.281179	4.554989	0.065273	
0.637019	0.238958	1.019760	0.405666	0.281418	4.710763	0.062116	
0.639892	0.233911	1.016191	0.402322	0.281548	4.814624	0.060144	
0.641358	0.231454	1.014240	0.400650	0.281604	4.866697	0.059193	
0.644231	0.226863	1.010185	0.397444	0.281691	4.966720	0.057432	
0.648438	0.220656	1.003755	0.392924	0.281766	5.107802	0.055084	
0.652644	0.215026	0.996837	0.388614	0.281780	5.241788	0.052988	
0.655517	0.211492	0.991887	0.385792	0.281755	5.328891	0.051689	
0.656983	0.209781	0.989303	0.384389	0.281731	5.371909	0.051065	
0.659856	0.206600	0.984143	0.381714	0.281664	5.453320	0.049914	
0.664063	0.202332	0.976416	0.377969	0.281518	5.565473	0.048388	
0.668269	0.198493	0.968565	0.374423	0.281318	5.669093	0.047034	
0.671142	0.196098	0.963174	0.372113	0.281152	5.734935	0.046199	
0.672608	0.194943	0.960423	0.370968	0.281059	5.767006	0.045799	
0.675481	0.192802	0.955045	0.368788	0.280860	5.826892	0.045063	
0.679688	0.189943	0.947226	0.365742	0.280530	5.907677	0.044090	
0.683894	0.187380	0.939512	0.362857	0.280159	5.980544	0.043229	
0.686767	0.185785	0.934319	0.360972	0.279882	6.025941	0.042699	
0.688233	0.185015	0.931696	0.360035	0.279733	6.047789	0.042446	
0.691106	0.183590	0.926612	0.358245	0.279429	6.088106	0.041979	
0.695313	0.181685	0.919306	0.355725	0.278952	6.141439	0.041363	
0.699519	0.179975	0.912170	0.353313	0.278439	6.188397	0.040818	
0.702392	0.178907	0.907390	0.351720	0.278068	6.217043	0.040482	
0.703858	0.178390	0.904978	0.350921	0.277871	6.230649	0.040321	
0.706731	0.177429	0.900300	0.349381	0.277474	6.255427	0.040024	
0.710938	0.176134	0.893550	0.347174	0.276858	6.287452	0.039631	
0.715144	0.174956	0.886891	0.345009	0.276201	6.314770	0.039280	
0.718017	0.174210	0.882379	0.343546	0.275726	6.330912	0.039063	
0.719483	0.173845	0.880083	0.342801	0.275476	6.338407	0.038958	
0.722356	0.173161	0.875589	0.341344	0.274967	6.351706	0.038764	
0.726563	0.172221	0.868993	0.339203	0.274177	6.368037	0.038504	
0.730769	0.171342	0.862333	0.337035	0.273329	6.380880	0.038269	
0.733642	0.170771	0.857717	0.335528	0.272711	6.387770	0.038121	
0.735108	0.170487	0.855333	0.334747	0.272384	6.390722	0.038049	
0.737981	0.169943	0.850592	0.333192	0.271715	6.395435	0.037913	
0.742188	0.169170	0.843448	0.330839	0.270665	6.399839	0.037728	
0.746394	0.168416	0.836003	0.328376	0.269523	6.401359	0.037555	
0.749267	0.167907	0.830709	0.326618	0.268684	6.400766	0.037444	
0.750733	0.167648	0.827932	0.325695	0.268235	6.399957	0.037388	
0.753606	0.167140	0.822326	0.323827	0.267315	6.397371	0.037283	
0.757813	0.166390	0.813667	0.320936	0.265857	6.391166	0.037133	
0.762019	0.165624	0.804386	0.317834	0.264252	6.381990	0.036989	
0.764892	0.165086	0.797636	0.315577	0.263062	6.373930	0.036892	
0.766358	0.164806	0.794049	0.314378	0.262422	6.369229	0.036843	
0.769231	0.164246	0.786716	0.311929	0.261102	6.358811	0.036748	
0.773438	0.163390	0.775180	0.308084	0.258993	6.340489	0.036609	
0.777644	0.162485	0.762573	0.303896	0.256652	6.318183	0.036470	
0.780517	0.161833	0.753270	0.300818	0.254905	6.300419	0.036375	
0.781983	0.161490	0.748286	0.299174	0.253962	6.290495	0.036327	
0.784856	0.160791	0.738017	0.295799	0.252010	6.269236	0.036231	
0.789063	0.159704	0.721674	0.290462	0.248873	6.233358	0.036089	
0.793269	0.158533	0.703601	0.284613	0.245372	6.191081	0.035947	
0.796142	0.157679	0.690156	0.280301	0.242748	6.158034	0.035849	
0.797608	0.157226	0.682922	0.277995	0.241331	6.139730	0.035799	
0.800481	0.156301	0.667970	0.273259	0.238389	6.100790	0.035702	
0.804688	0.154854	0.644082	0.265782	0.233662	6.035668	0.035562	
0.808894	0.153292	0.617611	0.257625	0.228389	5.959581	0.035427	
0.811767	0.152157	0.597934	0.251649	0.224450	5.900487	0.035340	
0.813233	0.151555	0.587366	0.248471	0.222328	5.867890	0.035298	
0.816106	0.150334	0.565590	0.241988	0.217943	5.798872	0.035222	
0.820313	0.148448	0.531098	0.231902	0.210966	5.684575	0.035128	
0.824519	0.146453	0.493499	0.221156	0.203322	5.553236	0.035063	
0.827392	0.145039	0.466114	0.213489	0.197733	5.453247	0.035041	
0.828858	0.144304	0.451641	0.209490	0.194772	5.398953	0.035039	
0.831731	0.142845	0.422416	0.201523	0.188779	5.286282	0.035052	
0.835938	0.140688	0.377958	0.189678	0.179630	5.107193	0.035123	
0.840144	0.138554	0.332441	0.177880	0.170223	4.914297	0.035262	
0.843017	0.137139	0.301402	0.170016	0.163787	4.777253	0.035400	
0.844483	0.136439	0.285758	0.166107	0.160537	4.706488	0.035482	
0.847356	0.135118	0.255781	0.158716	0.154296	4.567727	0.035669	
0.851563	0.133340	0.214342	0.148704	0.145641	4.369023	0.035991	
0.855769	0.131779	0.176898	0.139855	0.137793	4.182555	0.036354	
0.858642	0.130846	0.154042	0.134540	0.132987	4.065456	0.036613	
0.860108	0.130412	0.143278	0.132058	0.130720	4.009435	0.036745	
0.862981	0.129642	0.123952	0.127638	0.126642	3.907431	0.037002	
0.867188	0.128693	0.099755	0.122161	0.121521	3.777070	0.037360	
0.871394	0.127932	0.080015	0.117738	0.117329	3.668470	0.037684	
0.874267	0.127505	0.068794	0.115240	0.114939	3.605779	0.037884	
0.875733	0.127312	0.063691	0.114108	0.113850	3.577036	0.037978	
0.878606	0.126978	0.054789	0.112138	0.111947	3.526521	0.038149	
0.882813	0.126577	0.044026	0.109763	0.109640	3.464775	0.038366	
0.887019	0.126261	0.035477	0.107880	0.107801	3.415170	0.038547	
0.889892	0.126085	0.030671	0.106823	0.106764	3.387043	0.038653	
0.891358	0.126006	0.028494	0.106345	0.106293	3.374234	0.038702	
0.894231	0.125868	0.024695	0.105509	0.105471	3.351791	0.038788	
0.898438	0.125702	0.020089	0.104495	0.104470	3.324384	0.038896	
0.902644	0.125569	0.016402	0.103683	0.103666	3.302277	0.038985	
0.905517	0.125495	0.014310	0.103222	0.103209	3.289659	0.039037	
0.906983	0.125461	0.013357	0.103011	0.103000	3.283884	0.039061	
0.909856	0.125401	0.011682	0.102641	0.102632	3.273710	0.039103	
0.914063	0.125329	0.009628	0.102185	0.102179	3.261159	0.039155	
0.918269	0.125270	0.007959	0.101814	0.101810	3.250899	0.039199	
0.921142	0.125237	0.007001	0.101601	0.101598	3.244973	0.039224	
0.922608	0.125222	0.006560	0.101502	0.101500	3.242242	0.039236	
0.925481	0.125194	0.005782	0.101328	0.101326	3.237396	0.039257	
0.929688	0.125161	0.004816	0.101111	0.101110	3.231355	0.039283	
0.933894	0.125134	0.004022	0.100933	0.100932	3.226359	0.039305	
0.936767	0.125118	0.003561	0.100829	0.100828	3.223445	0.039317	
0.938233	0.125111	0.003348	0.100780	0.100780	3.222094	0.039323	
0.941106	0.125098	0.002969	0.100694	0.100694	3.219683	0.039334	
0.945313	0.125082	0.002494	0.100586	0.100586	3.216647	0.039347	
0.949519	0.125068	0.002099	0.100496	0.100496	3.214106	0.039359	
0.952392	0.125061	0.001868	0.100443	0.100443	3.212610	0.039366	
0.953858	0.125057	0.001760	0.100418	0.100418	3.211913	0.039369	
0.956731	0.125051	0.001568	0.100374	0.100374	3.210665	0.039374	
0.960938	0.125043	0.001326	0.100318	0.100318	3.209083	0.039382	
0.965144	0.125036	0.001123	0.100271	0.100271	3.207750	0.039388	
0.968017	0.125032	0.001004	0.100243	0.100243	3.206961	0.039391	
0.969483	0.125030	0.000948	0.100230	0.100230	3.206591	0.039393	
0.972356	0.125027	0.000847	0.100207	0.100207	3.205926	0.039396	
0.976563	0.125023	0.000720	0.100177	0.100177	3.205077	0.039400	
0.980769	0.125019	0.000611	0.100152	0.100152	3.204356	0.039403	
0.983642	0.125017	0.000547	0.100137	0.100137	3.203928	0.039405	
0.985108	0.125016	0.000517	0.100130	0.100130	3.203728	0.039406	
0.987981	0.125015	0.000463	0.100117	0.100117	3.203367	0.039408	
0.992188	0.125013	0.000393	0.100101	0.100101	3.202906	0.039410	
0.996394	0.125011	0.000334	0.100087	0.100087	3.202516	0.039412	
0.999267	0.125010	0.000298	0.100079	0.100079	3.202283	0.039413	
