TITLE = "DG1DFDX64-P3RK4w100iv80"
VARIABLES = "x" "Density" "Velocity in x" "Energy" "Pressure" "Temperature" "Fugacity"
ZONE T = "Final Time 0.10"
I = 256, J = 1, K = 1, F = POINT

0.001085	0.837434	0.000004	0.913162	0.913162	4.000025	0.282067	
0.005156	0.837434	0.000004	0.913161	0.913161	4.000024	0.282067	
0.010469	0.837434	0.000006	0.913159	0.913159	4.000021	0.282067	
0.014540	0.837434	0.000007	0.913157	0.913157	4.000018	0.282067	
0.016710	0.837433	0.000008	0.913156	0.913156	4.000017	0.282067	
0.020781	0.837433	0.000009	0.913153	0.913153	4.000013	0.282067	
0.026094	0.837432	0.000012	0.913149	0.913149	4.000006	0.282067	
0.030165	0.837432	0.000015	0.913145	0.913145	4.000000	0.282067	
0.032335	0.837431	0.000017	0.913142	0.913142	3.999996	0.282067	
0.036406	0.837430	0.000021	0.913135	0.913135	3.999986	0.282067	
0.041719	0.837428	0.000029	0.913124	0.913124	3.999969	0.282067	
0.045790	0.837426	0.000038	0.913111	0.913111	3.999951	0.282067	
0.047960	0.837424	0.000047	0.913098	0.913098	3.999929	0.282067	
0.052031	0.837419	0.000067	0.913067	0.913067	3.999521	0.282082	
0.057344	0.837413	0.000095	0.913027	0.913027	3.999460	0.282082	
0.061415	0.837408	0.000114	0.912998	0.912998	3.999415	0.282082	
0.063585	0.837405	0.000126	0.912980	0.912980	3.999389	0.282082	
0.067656	0.837398	0.000158	0.912936	0.912936	3.999318	0.282082	
0.072969	0.837385	0.000209	0.912859	0.912859	3.998837	0.282097	
0.077040	0.837374	0.000256	0.912793	0.912793	3.998732	0.282097	
0.079210	0.837367	0.000287	0.912751	0.912751	3.998664	0.282097	
0.083281	0.837351	0.000350	0.912657	0.912657	3.998153	0.282112	
0.088594	0.837326	0.000455	0.912508	0.912508	3.997550	0.282127	
0.092665	0.837302	0.000555	0.912369	0.912368	3.996959	0.282142	
0.094835	0.837287	0.000616	0.912282	0.912281	3.996815	0.282142	
0.098906	0.837254	0.000748	0.912094	0.912094	3.996141	0.282157	
0.104219	0.837201	0.000963	0.911795	0.911795	3.994912	0.282187	
0.108290	0.837150	0.001166	0.911513	0.911513	3.994067	0.282202	
0.110460	0.837118	0.001290	0.911342	0.911341	3.993410	0.282218	
0.114531	0.837051	0.001558	0.910975	0.910974	3.992048	0.282248	
0.119844	0.836942	0.001985	0.910393	0.910391	3.989931	0.282293	
0.123915	0.836840	0.002385	0.909853	0.909851	3.987879	0.282338	
0.126085	0.836778	0.002627	0.909527	0.909524	3.986925	0.282354	
0.130156	0.836644	0.003144	0.908836	0.908832	3.984575	0.282399	
0.135469	0.836431	0.003958	0.907757	0.907751	3.980760	0.282474	
0.139540	0.836235	0.004706	0.906774	0.906765	3.977100	0.282550	
0.141710	0.836116	0.005154	0.906188	0.906177	3.975257	0.282580	
0.145781	0.835865	0.006099	0.904961	0.904946	3.970727	0.282671	
0.151094	0.835474	0.007560	0.903083	0.903059	3.964157	0.282792	
0.155165	0.835118	0.008878	0.901405	0.901373	3.958291	0.282897	
0.157335	0.834906	0.009657	0.900420	0.900381	3.954864	0.282958	
0.161406	0.834464	0.011277	0.898386	0.898333	3.947838	0.283079	
0.166719	0.833789	0.013728	0.895344	0.895266	3.937567	0.283245	
0.170790	0.833189	0.015890	0.892690	0.892585	3.928376	0.283396	
0.172960	0.832837	0.017152	0.891155	0.891033	3.923298	0.283471	
0.177031	0.832112	0.019735	0.888035	0.887873	3.912611	0.283637	
0.182344	0.831030	0.023559	0.883476	0.883245	3.896857	0.283879	
0.186415	0.830088	0.026862	0.879591	0.879292	3.883509	0.284075	
0.188585	0.829543	0.028759	0.877379	0.877036	3.875992	0.284181	
0.192656	0.828438	0.032590	0.872956	0.872516	3.861188	0.284378	
0.197969	0.826825	0.038140	0.866642	0.866041	3.839650	0.284665	
0.202040	0.825450	0.042834	0.861384	0.860627	3.821775	0.284891	
0.204210	0.824666	0.045497	0.858433	0.857580	3.811803	0.285012	
0.208281	0.823097	0.050801	0.852620	0.851557	3.791902	0.285254	
0.213594	0.820850	0.058337	0.844502	0.843106	3.764195	0.285571	
0.217665	0.818972	0.064593	0.837884	0.836176	3.741667	0.285812	
0.219835	0.817914	0.068098	0.834222	0.832325	3.729031	0.285948	
0.223906	0.815822	0.075001	0.827101	0.824806	3.704719	0.286190	
0.229219	0.812879	0.084646	0.817349	0.814437	3.670877	0.286522	
0.233290	0.810458	0.092528	0.809543	0.806074	3.643883	0.286764	
0.235460	0.809110	0.096900	0.805275	0.801476	3.628878	0.286900	
0.239531	0.806470	0.105426	0.797075	0.792594	3.600459	0.287127	
0.244844	0.802810	0.117169	0.786037	0.780526	3.561254	0.287444	
0.248915	0.799843	0.126638	0.777345	0.770932	3.530300	0.287670	
0.251085	0.798204	0.131848	0.772641	0.765703	3.513681	0.287776	
0.255156	0.795022	0.141927	0.763693	0.755686	3.481427	0.287988	
0.260469	0.790664	0.155655	0.751821	0.742242	3.437922	0.288259	
0.264540	0.787170	0.166607	0.742603	0.731678	3.404014	0.288441	
0.266710	0.785255	0.172590	0.737659	0.725964	3.385389	0.288546	
0.270781	0.781563	0.184088	0.728339	0.715096	3.350395	0.288713	
0.276094	0.776558	0.199604	0.716129	0.700659	3.303851	0.288909	
0.280165	0.772582	0.211877	0.706761	0.689419	3.267237	0.289060	
0.282335	0.770414	0.218547	0.701775	0.683376	3.247794	0.289120	
0.286406	0.766260	0.231298	0.692446	0.671949	3.210610	0.289241	
0.291719	0.760674	0.248373	0.680362	0.656899	3.161754	0.289362	
0.295790	0.756271	0.261780	0.671190	0.645277	3.123892	0.289438	
0.297960	0.753884	0.269031	0.666344	0.639062	3.103388	0.289483	
0.302031	0.749329	0.282835	0.657339	0.627367	3.065197	0.289528	
0.307344	0.743244	0.301207	0.645785	0.612069	3.014825	0.289574	
0.311415	0.738479	0.315546	0.637103	0.600338	2.976030	0.289589	
0.313585	0.735905	0.323274	0.632545	0.594091	2.955584	0.289574	
0.317656	0.731017	0.337924	0.624130	0.582392	2.916699	0.289558	
0.322969	0.724527	0.357310	0.613440	0.567190	2.865893	0.289513	
0.327040	0.719473	0.372359	0.605484	0.555606	2.827290	0.289438	
0.329210	0.716754	0.380441	0.601331	0.549462	2.806693	0.289392	
0.333281	0.711604	0.395712	0.593711	0.537997	2.767965	0.289302	
0.338594	0.704806	0.415816	0.584121	0.523189	2.717942	0.289136	
0.342665	0.699541	0.431338	0.577052	0.511976	2.679835	0.288984	
0.344835	0.696719	0.439643	0.573387	0.506054	2.659655	0.288894	
0.348906	0.691395	0.455278	0.566707	0.495052	2.621927	0.288713	
0.354219	0.684404	0.475751	0.558381	0.480928	2.573236	0.288441	
0.358290	0.679019	0.491475	0.552305	0.470297	2.536461	0.288199	
0.360460	0.676142	0.499857	0.549176	0.464707	2.517228	0.288048	
0.364531	0.670736	0.515573	0.543512	0.454366	2.481284	0.287761	
0.369844	0.663680	0.536020	0.536532	0.441189	2.435143	0.287353	
0.373915	0.658280	0.551614	0.531496	0.431346	2.400547	0.287006	
0.376085	0.655408	0.559888	0.528923	0.426196	2.382380	0.286809	
0.380156	0.650033	0.575331	0.524302	0.416719	2.348865	0.286417	
0.385469	0.643063	0.595275	0.518676	0.404740	2.306522	0.285843	
0.389540	0.637766	0.610363	0.514669	0.395872	2.274935	0.285374	
0.391710	0.634963	0.618320	0.512642	0.391263	2.258598	0.285103	
0.395781	0.629748	0.633074	0.509035	0.382839	2.228586	0.284574	
0.401094	0.623041	0.651935	0.504709	0.372307	2.190942	0.283834	
0.405165	0.617987	0.666054	0.501676	0.364598	2.163474	0.283214	
0.407335	0.615327	0.673448	0.500157	0.360622	2.149326	0.282867	
0.411406	0.610407	0.687051	0.497485	0.353417	2.123859	0.282172	
0.416719	0.604137	0.704224	0.494337	0.344532	2.092506	0.281206	
0.420790	0.599458	0.716902	0.492171	0.338126	2.069949	0.280420	
0.422960	0.597012	0.723477	0.491101	0.334857	2.058693	0.279967	
0.427031	0.592514	0.735459	0.489242	0.328997	2.038528	0.279091	
0.432344	0.586829	0.750370	0.487095	0.321887	2.014465	0.277867	
0.436415	0.582615	0.761221	0.485649	0.316848	1.997719	0.276871	
0.438585	0.580421	0.766793	0.484944	0.314308	1.989474	0.276312	
0.442656	0.576399	0.776847	0.483737	0.309811	1.975296	0.275209	
0.447969	0.571333	0.789177	0.482373	0.304460	1.959223	0.273668	
0.452040	0.567579	0.798029	0.481472	0.300741	1.948816	0.272400	
0.454210	0.565618	0.802542	0.481039	0.298889	1.943760	0.271705	
0.458281	0.562006	0.810637	0.480305	0.295648	1.935929	0.270300	
0.463594	0.557401	0.820499	0.479486	0.291860	1.927824	0.268351	
0.467665	0.553930	0.827554	0.478950	0.289271	1.923496	0.266735	
0.469835	0.552091	0.831150	0.478692	0.287997	1.922006	0.265814	
0.473906	0.548646	0.837613	0.478252	0.285789	1.920094	0.264016	
0.479219	0.544118	0.845554	0.477752	0.283241	1.920183	0.261449	
0.483290	0.540578	0.851325	0.477411	0.281517	1.922056	0.259304	
0.485460	0.538654	0.854308	0.477239	0.280673	1.923841	0.258080	
0.489531	0.534949	0.859758	0.476931	0.279218	1.928362	0.255648	
0.494844	0.529877	0.866649	0.476539	0.277549	1.937122	0.252144	
0.498915	0.525754	0.871825	0.476232	0.276424	1.946051	0.249184	
0.501085	0.523458	0.874566	0.476062	0.275874	1.951542	0.247507	
0.505156	0.518935	0.879703	0.475722	0.274926	1.963607	0.244139	
0.510469	0.512552	0.886459	0.475221	0.273837	1.982855	0.239290	
0.514540	0.507237	0.891726	0.474774	0.273103	2.000595	0.235197	
0.516710	0.504239	0.894578	0.474509	0.272745	2.011036	0.232886	
0.520781	0.498284	0.900029	0.473948	0.272131	2.033153	0.228264	
0.526094	0.489814	0.907377	0.473073	0.271433	2.066827	0.221693	
0.530165	0.482750	0.913215	0.472269	0.270972	2.096667	0.216240	
0.532335	0.478773	0.916404	0.471787	0.270751	2.114347	0.213174	
0.536406	0.470906	0.922534	0.470769	0.270382	2.150489	0.207162	
0.541719	0.459834	0.930813	0.469191	0.269988	2.204136	0.198825	
0.545790	0.450742	0.937351	0.467770	0.269753	2.251047	0.192073	
0.547960	0.445686	0.940895	0.466930	0.269651	2.278307	0.188357	
0.552031	0.435824	0.947636	0.465191	0.269503	2.333540	0.181213	
0.557344	0.422270	0.956554	0.462583	0.269395	2.414017	0.171621	
0.561415	0.411420	0.963415	0.460311	0.269378	2.483053	0.164114	
0.563585	0.405495	0.967056	0.459000	0.269392	2.522567	0.160081	
0.567656	0.394159	0.973815	0.456354	0.269460	2.601908	0.152499	
0.572969	0.379045	0.982381	0.452533	0.269630	2.715338	0.142681	
0.577040	0.367316	0.988654	0.449332	0.269818	2.810345	0.135279	
0.579210	0.361046	0.991857	0.447532	0.269938	2.863987	0.131397	
0.583281	0.349297	0.997559	0.443992	0.270195	2.969458	0.124283	
0.588594	0.334121	1.004257	0.439076	0.270590	3.117422	0.115371	
0.592665	0.322707	1.008722	0.435108	0.270927	3.238312	0.108876	
0.594835	0.316732	1.010828	0.432932	0.271118	3.305727	0.105538	
0.598906	0.305761	1.014235	0.428754	0.271490	3.435320	0.099557	
0.604219	0.292006	1.017518	0.423156	0.271992	3.611669	0.092291	
0.608290	0.281952	1.019085	0.418789	0.272380	3.751754	0.087141	
0.610460	0.276784	1.019570	0.416446	0.272584	3.828043	0.084543	
0.614531	0.267459	1.019810	0.412038	0.272958	3.972762	0.079951	
0.619844	0.256060	1.018801	0.406305	0.273416	4.163825	0.074498	
0.623915	0.247926	1.017035	0.401957	0.273735	4.311612	0.070707	
0.626085	0.243809	1.015755	0.399666	0.273891	4.388646	0.068834	
0.630156	0.236484	1.012744	0.395430	0.274154	4.534294	0.065541	
0.635469	0.227708	1.007694	0.390046	0.274433	4.720989	0.061689	
0.639540	0.221560	1.003043	0.386051	0.274595	4.859037	0.059061	
0.641710	0.218484	1.000323	0.383974	0.274662	4.928867	0.057777	
0.645781	0.213072	0.994807	0.380180	0.274748	5.060083	0.055527	
0.651094	0.206686	0.986932	0.375443	0.274783	5.221919	0.052929	
0.655165	0.202277	0.980480	0.371980	0.274752	5.337196	0.051176	
0.657335	0.200089	0.976929	0.370196	0.274715	5.396323	0.050315	
0.661406	0.196269	0.970096	0.366962	0.274609	5.504045	0.048820	
0.666719	0.191808	0.960961	0.362965	0.274403	5.631466	0.047113	
0.670790	0.188757	0.953871	0.360067	0.274195	5.720630	0.045965	
0.672960	0.187251	0.950087	0.358578	0.274066	5.764784	0.045406	
0.677031	0.184636	0.943006	0.355889	0.273794	5.839838	0.044455	
0.682344	0.181600	0.933860	0.352571	0.273385	5.931478	0.043352	
0.686415	0.179531	0.926957	0.350161	0.273030	5.994201	0.042612	
0.688585	0.178511	0.923326	0.348920	0.272827	6.025481	0.042250	
0.692656	0.176741	0.916603	0.346665	0.272419	6.078500	0.041630	
0.697969	0.174686	0.908025	0.343855	0.271840	6.135389	0.040935	
0.702040	0.173281	0.901599	0.341787	0.271358	6.178182	0.040452	
0.704210	0.172586	0.898226	0.340710	0.271088	6.196058	0.040226	
0.708281	0.171374	0.891976	0.338729	0.270555	6.227017	0.039833	
0.713594	0.169948	0.883941	0.336201	0.269807	6.266414	0.039365	
0.717665	0.168959	0.877840	0.334287	0.269187	6.287242	0.039063	
0.719835	0.168463	0.874597	0.333270	0.268840	6.297725	0.038911	
0.723906	0.167585	0.868505	0.331359	0.268154	6.313070	0.038655	
0.729219	0.166524	0.860492	0.328835	0.267184	6.334272	0.038337	
0.733290	0.165764	0.854238	0.326857	0.266376	6.344570	0.038126	
0.735460	0.165374	0.850845	0.325780	0.265920	6.348972	0.038020	
0.739531	0.164663	0.844333	0.323706	0.265012	6.353380	0.037839	
0.744844	0.163766	0.835465	0.320866	0.263711	6.358311	0.037612	
0.748915	0.163091	0.828304	0.318561	0.262614	6.355663	0.037461	
0.751085	0.162733	0.824338	0.317280	0.261989	6.357709	0.037371	
0.755156	0.162058	0.816553	0.314760	0.260733	6.355074	0.037220	
0.760469	0.161163	0.805616	0.311212	0.258913	6.345123	0.037038	
0.764540	0.160454	0.796523	0.308258	0.257358	6.334721	0.036903	
0.766710	0.160066	0.791387	0.306590	0.256466	6.329342	0.036827	
0.770781	0.159313	0.781130	0.303263	0.254660	6.315261	0.036691	
0.776094	0.158270	0.766386	0.298493	0.252014	6.288270	0.036525	
0.780165	0.157415	0.753879	0.294464	0.249732	6.265929	0.036389	
0.782335	0.156937	0.746732	0.292171	0.248416	6.253180	0.036313	
0.786406	0.155991	0.732311	0.287565	0.245738	6.223368	0.036178	
0.791719	0.154649	0.711274	0.280904	0.241784	6.177013	0.035996	
0.795790	0.153529	0.693210	0.275245	0.238357	6.132935	0.035860	
0.797960	0.152896	0.682819	0.272016	0.236373	6.107526	0.035785	
0.802031	0.151636	0.661757	0.265532	0.232330	6.052090	0.035649	
0.807344	0.149840	0.630880	0.256175	0.226356	5.968626	0.035468	
0.811415	0.148340	0.604345	0.248278	0.221188	5.893767	0.035332	
0.813585	0.147495	0.589097	0.243799	0.218206	5.846317	0.035271	
0.817656	0.145827	0.558348	0.234898	0.212167	5.748425	0.035166	
0.822969	0.143488	0.513803	0.222308	0.203368	5.602986	0.035045	
0.827040	0.141587	0.476352	0.211993	0.195930	5.469301	0.034999	
0.829210	0.140542	0.455271	0.206294	0.191729	5.388868	0.034999	
0.833281	0.138542	0.413907	0.195324	0.183457	5.232172	0.035014	
0.838594	0.135907	0.357330	0.180765	0.172088	5.005530	0.035120	
0.842665	0.133932	0.313267	0.169766	0.163195	4.816470	0.035286	
0.844835	0.132915	0.290003	0.164075	0.158486	4.712057	0.035407	
0.848906	0.131103	0.247589	0.153895	0.149877	4.516566	0.035679	
0.854219	0.129005	0.196761	0.142011	0.139514	4.270306	0.036117	
0.858290	0.127629	0.162370	0.134159	0.132476	4.099047	0.036480	
0.860460	0.126984	0.145963	0.130462	0.129109	4.015489	0.036676	
0.864531	0.125933	0.118763	0.124401	0.123513	3.874262	0.037038	
0.869844	0.124846	0.090050	0.118089	0.117583	3.718490	0.037492	
0.873915	0.124199	0.072646	0.114301	0.113974	3.622931	0.037794	
0.876085	0.123909	0.064787	0.112600	0.112340	3.578169	0.037945	
0.880156	0.123455	0.052310	0.109909	0.109740	3.508286	0.038186	
0.885469	0.122999	0.039677	0.107194	0.107097	3.437268	0.038443	
0.889540	0.122733	0.032222	0.105595	0.105531	3.393796	0.038609	
0.891710	0.122614	0.028867	0.104876	0.104825	3.374358	0.038685	
0.895781	0.122427	0.023556	0.103738	0.103704	3.343699	0.038806	
0.901094	0.122238	0.018151	0.102578	0.102558	3.310754	0.038942	
0.905165	0.122126	0.014928	0.101886	0.101872	3.292247	0.039017	
0.907335	0.122075	0.013465	0.101571	0.101560	3.282097	0.039063	
0.911406	0.121994	0.011127	0.101067	0.101059	3.267923	0.039123	
0.916719	0.121912	0.008709	0.100545	0.100540	3.253705	0.039183	
0.920790	0.121862	0.007242	0.100227	0.100223	3.246169	0.039214	
0.922960	0.121839	0.006569	0.100080	0.100077	3.240091	0.039244	
0.927031	0.121802	0.005482	0.099843	0.099841	3.235719	0.039259	
0.932344	0.121764	0.004341	0.099594	0.099593	3.226432	0.039304	
0.936415	0.121741	0.003639	0.099440	0.099439	3.222776	0.039319	
0.938585	0.121730	0.003314	0.099368	0.099367	3.222204	0.039319	
0.942656	0.121712	0.002783	0.099251	0.099250	3.218866	0.039334	
0.947969	0.121694	0.002218	0.099126	0.099126	3.213080	0.039365	
0.952040	0.121682	0.001869	0.099048	0.099047	3.212463	0.039365	
0.954210	0.121677	0.001700	0.099010	0.099010	3.209781	0.039380	
0.958281	0.121668	0.001430	0.098952	0.098951	3.209321	0.039380	
0.963594	0.121658	0.001140	0.098885	0.098885	3.206421	0.039395	
0.967665	0.121652	0.000956	0.098845	0.098845	3.206116	0.039395	
0.969835	0.121650	0.000885	0.098827	0.098827	3.205988	0.039395	
0.973906	0.121645	0.000718	0.098790	0.098790	3.203321	0.039410	
0.979219	0.121640	0.000567	0.098757	0.098757	3.203064	0.039410	
0.983290	0.121637	0.000493	0.098738	0.098738	3.202929	0.039410	
0.985460	0.121636	0.000447	0.098730	0.098729	3.202873	0.039410	
0.989531	0.121633	0.000360	0.098710	0.098710	3.202721	0.039410	
0.994844	0.121629	0.000247	0.098679	0.098679	3.200113	0.039425	
0.998915	0.121627	0.000183	0.098664	0.098664	3.199969	0.039425	
