TITLE = "DG1DMBX32-P4RK3w5000iv80"
VARIABLES = "x" "Density" "Velocity in x" "Energy" "Pressure" "Temperature" "Fugacity"
ZONE T = "Final Time 0.10"
I = 160, J = 1, K = 1, F = POINT

0.001466	1.000000	-0.000000	1.000000	1.000000	4.000000	0.282095	
0.007211	1.000000	-0.000000	1.000000	1.000000	4.000000	0.282095	
0.015625	1.000000	0.000000	1.000000	1.000000	4.000000	0.282095	
0.024039	1.000000	-0.000000	1.000000	1.000000	4.000000	0.282095	
0.029784	1.000000	0.000000	1.000000	1.000000	4.000000	0.282095	
0.032716	1.000000	0.000000	1.000000	1.000000	4.000000	0.282095	
0.038461	1.000000	-0.000000	1.000000	1.000000	4.000000	0.282095	
0.046875	1.000000	0.000000	1.000000	1.000000	4.000000	0.282095	
0.055289	1.000000	0.000000	1.000000	1.000000	4.000000	0.282095	
0.061034	1.000000	-0.000000	1.000000	1.000000	4.000000	0.282095	
0.063966	1.000000	0.000000	1.000000	1.000000	4.000000	0.282095	
0.069711	1.000000	0.000000	1.000000	1.000000	4.000000	0.282095	
0.078125	1.000000	-0.000000	1.000000	1.000000	4.000000	0.282095	
0.086539	1.000000	0.000000	1.000000	1.000000	4.000000	0.282095	
0.092284	1.000000	-0.000000	1.000000	1.000000	4.000000	0.282095	
0.095216	1.000000	-0.000000	1.000000	1.000000	4.000000	0.282095	
0.100961	1.000000	0.000000	1.000000	1.000000	4.000000	0.282095	
0.109375	1.000000	0.000000	1.000000	1.000000	4.000000	0.282095	
0.117789	1.000000	-0.000000	1.000000	1.000000	4.000000	0.282095	
0.123534	1.000000	0.000000	1.000000	1.000000	4.000000	0.282095	
0.126466	1.000000	-0.000000	1.000000	1.000000	4.000000	0.282095	
0.132211	1.000000	-0.000000	1.000000	1.000000	4.000000	0.282095	
0.140625	1.000000	0.000000	1.000000	1.000000	4.000000	0.282095	
0.149039	1.000000	-0.000000	1.000000	1.000000	4.000000	0.282095	
0.154784	1.000000	-0.000000	1.000000	1.000000	4.000000	0.282095	
0.157716	1.000000	0.000000	1.000000	1.000000	4.000000	0.282095	
0.163461	1.000000	0.000000	1.000000	1.000000	4.000000	0.282095	
0.171875	1.000000	-0.000000	1.000000	1.000000	4.000000	0.282095	
0.180289	1.000000	0.000000	1.000000	1.000000	4.000000	0.282095	
0.186034	1.000000	-0.000000	1.000000	1.000000	4.000000	0.282095	
0.188966	1.000000	-0.000000	1.000000	1.000000	4.000001	0.282095	
0.194711	1.000000	0.000000	1.000000	1.000000	4.000000	0.282095	
0.203125	1.000000	0.000000	1.000000	1.000000	4.000000	0.282095	
0.211539	1.000000	-0.000000	1.000000	1.000000	4.000001	0.282095	
0.217284	1.000000	0.000001	0.999999	0.999999	3.999996	0.282095	
0.220216	1.000000	0.000001	0.999999	0.999999	3.999999	0.282095	
0.225961	1.000000	-0.000001	1.000001	1.000001	4.000004	0.282095	
0.234375	1.000000	0.000001	0.999999	0.999999	3.999997	0.282095	
0.242789	1.000000	0.000001	1.000000	1.000000	4.000000	0.282095	
0.248534	1.000003	-0.000007	1.000008	1.000008	4.000022	0.282095	
0.251466	1.000000	0.000001	0.999998	0.999998	3.999994	0.282095	
0.257211	0.999998	0.000006	0.999993	0.999993	3.999981	0.282095	
0.265625	1.000003	-0.000007	1.000009	1.000009	4.000026	0.282095	
0.274039	0.999999	0.000003	0.999994	0.999994	3.999979	0.282095	
0.279784	0.999987	0.000031	0.999965	0.999965	3.999910	0.282094	
0.282716	1.000007	-0.000016	1.000023	1.000023	4.000066	0.282094	
0.288461	1.000010	-0.000026	1.000032	1.000032	4.000085	0.282095	
0.296875	0.999985	0.000039	0.999949	0.999949	3.999857	0.282096	
0.305289	1.000010	-0.000026	1.000043	1.000043	4.000135	0.282093	
0.311034	1.000059	-0.000141	1.000161	1.000161	4.000407	0.282097	
0.313966	0.999972	0.000067	0.999902	0.999902	3.999721	0.282097	
0.319711	0.999945	0.000139	0.999833	0.999833	3.999552	0.282095	
0.328125	1.000069	-0.000176	1.000233	1.000233	4.000656	0.282091	
0.336539	0.999993	0.000028	0.999918	0.999918	3.999701	0.282103	
0.342284	0.999709	0.000709	0.999167	0.999167	3.997830	0.282089	
0.345216	0.999965	0.000111	0.999944	0.999944	3.999916	0.282088	
0.350961	1.000287	-0.000747	1.000902	1.000902	4.002460	0.282089	
0.359375	0.999867	0.000377	0.999484	0.999484	3.998468	0.282111	
0.367789	0.999546	0.001105	0.998763	0.998763	3.996867	0.282077	
0.373534	1.000883	-0.002340	1.002847	1.002844	4.007837	0.282068	
0.376466	1.001280	-0.003271	1.003863	1.003857	4.010296	0.282093	
0.382211	0.999783	0.000805	0.999069	0.999069	3.997143	0.282134	
0.390625	0.998689	0.003065	0.996106	0.996101	3.989635	0.282091	
0.399039	1.001870	-0.004834	1.006321	1.006309	4.017724	0.281998	
0.404784	1.002226	-0.004414	1.005331	1.005322	4.012354	0.282287	
0.407716	0.997957	0.004890	0.993115	0.993103	3.980545	0.282206	
0.413461	0.984839	0.038437	0.952868	0.952140	3.867191	0.282548	
0.421875	0.952830	0.116790	0.868423	0.861924	3.618378	0.282607	
0.430289	0.912657	0.215435	0.778277	0.757098	3.318212	0.282671	
0.436034	0.883623	0.286313	0.723392	0.687175	3.110714	0.282658	
0.438966	0.867723	0.324546	0.697084	0.651386	3.002735	0.282519	
0.444711	0.837272	0.400237	0.651343	0.584282	2.791361	0.282738	
0.453125	0.789391	0.515626	0.596057	0.491119	2.488601	0.282319	
0.461539	0.740274	0.636689	0.554830	0.404787	2.187226	0.282404	
0.467284	0.706087	0.720275	0.534640	0.351482	1.991156	0.282313	
0.470216	0.689237	0.760917	0.526901	0.327369	1.899890	0.282117	
0.475961	0.660334	0.828950	0.516354	0.289477	1.753521	0.281341	
0.484375	0.643073	0.873705	0.512501	0.267053	1.661102	0.281506	
0.492789	0.648583	0.860923	0.514150	0.273789	1.688534	0.281602	
0.498534	0.647241	0.856535	0.513370	0.275945	1.705361	0.279629	
0.501466	0.647599	0.855800	0.513424	0.276275	1.706454	0.279695	
0.507211	0.638714	0.862356	0.510007	0.272515	1.706647	0.275842	
0.515625	0.661696	0.864918	0.518818	0.271316	1.640126	0.291504	
0.524039	0.559333	0.870028	0.485149	0.273456	1.955587	0.225661	
0.529784	0.392135	0.878169	0.427872	0.276669	2.822175	0.131695	
0.532716	0.290855	0.895466	0.393013	0.276401	3.801216	0.084167	
0.538461	0.189497	0.891138	0.349093	0.273851	5.780583	0.044467	
0.546875	0.168032	0.863792	0.335634	0.272946	6.497495	0.037191	
0.555289	0.173181	0.864976	0.337767	0.272981	6.305088	0.038912	
0.561034	0.168788	0.875684	0.335478	0.270763	6.416632	0.037594	
0.563966	0.168444	0.869919	0.334079	0.270343	6.419770	0.037508	
0.569711	0.172980	0.857616	0.338073	0.274460	6.346626	0.038739	
0.578125	0.169261	0.858844	0.337338	0.274913	6.496796	0.037466	
0.586539	0.169468	0.846032	0.335013	0.274362	6.475834	0.037572	
0.592284	0.175461	0.835775	0.335240	0.273958	6.245448	0.039612	
0.595216	0.172963	0.850926	0.323055	0.260435	6.022901	0.039763	
0.600961	0.170415	0.939497	0.364095	0.288886	6.780773	0.036923	
0.609375	0.157106	0.662168	0.263857	0.229414	5.840999	0.036675	
0.617789	0.124672	-0.071602	0.084989	0.084669	2.716536	0.042676	
0.623534	0.113138	-0.159098	0.084812	0.083380	2.947910	0.037177	
0.626466	0.139179	0.201053	0.132035	0.129222	3.713846	0.040746	
0.632211	0.123795	-0.006991	0.100749	0.100746	3.255243	0.038711	
0.640625	0.124264	-0.014781	0.097271	0.097257	3.130661	0.039624	
0.649039	0.126809	0.029465	0.104598	0.104543	3.297660	0.039398	
0.654784	0.122658	-0.031440	0.095701	0.095640	3.118920	0.039185	
0.657716	0.124118	-0.023251	0.096387	0.096354	3.105230	0.039739	
0.663461	0.125914	0.016531	0.102528	0.102511	3.256532	0.039366	
0.671875	0.124617	-0.006514	0.099013	0.099010	3.178076	0.039438	
0.680289	0.125120	0.001679	0.100254	0.100254	3.205050	0.039431	
0.686034	0.125363	0.007254	0.100985	0.100982	3.222067	0.039403	
0.688966	0.124670	-0.006155	0.099247	0.099245	3.184235	0.039417	
0.694711	0.124978	-0.000460	0.099898	0.099897	3.197282	0.039434	
0.703125	0.125047	0.000879	0.100134	0.100134	3.203091	0.039420	
0.711539	0.124947	-0.000937	0.099866	0.099866	3.197052	0.039425	
0.717284	0.125034	0.000472	0.100062	0.100062	3.201106	0.039428	
0.720216	0.125048	0.000953	0.100140	0.100140	3.203237	0.039419	
0.725961	0.124977	-0.000389	0.099944	0.099944	3.198777	0.039424	
0.734375	0.125006	0.000099	0.100015	0.100015	3.200305	0.039424	
0.742789	0.125001	0.000032	0.100005	0.100005	3.200115	0.039424	
0.748534	0.124988	-0.000210	0.099971	0.099971	3.199384	0.039424	
0.751466	0.125004	0.000061	0.100006	0.100006	3.200085	0.039425	
0.757211	0.125003	0.000047	0.100008	0.100008	3.200178	0.039424	
0.765625	0.124998	-0.000030	0.099995	0.099995	3.199899	0.039424	
0.774039	0.125001	0.000018	0.100003	0.100003	3.200057	0.039424	
0.779784	0.125000	0.000010	0.100001	0.100001	3.200035	0.039424	
0.782716	0.124998	-0.000028	0.099996	0.099996	3.199915	0.039424	
0.788461	0.125000	0.000005	0.100001	0.100001	3.200011	0.039424	
0.796875	0.125000	0.000001	0.100000	0.100000	3.200003	0.039424	
0.805289	0.125000	-0.000003	0.100000	0.100000	3.199992	0.039424	
0.811034	0.125000	0.000004	0.100001	0.100001	3.200011	0.039424	
0.813966	0.125000	0.000001	0.100000	0.100000	3.200005	0.039424	
0.819711	0.125000	-0.000001	0.100000	0.100000	3.199995	0.039424	
0.828125	0.125000	0.000001	0.100000	0.100000	3.200002	0.039424	
0.836539	0.125000	-0.000000	0.100000	0.100000	3.199999	0.039424	
0.842284	0.125000	-0.000000	0.100000	0.100000	3.199998	0.039424	
0.845216	0.125000	0.000001	0.100000	0.100000	3.200002	0.039424	
0.850961	0.125000	-0.000000	0.100000	0.100000	3.200000	0.039424	
0.859375	0.125000	-0.000000	0.100000	0.100000	3.200000	0.039424	
0.867789	0.125000	0.000000	0.100000	0.100000	3.200000	0.039424	
0.873534	0.125000	-0.000000	0.100000	0.100000	3.200000	0.039424	
0.876466	0.125000	-0.000000	0.100000	0.100000	3.200000	0.039424	
0.882211	0.125000	0.000000	0.100000	0.100000	3.200000	0.039424	
0.890625	0.125000	-0.000000	0.100000	0.100000	3.200000	0.039424	
0.899039	0.125000	0.000000	0.100000	0.100000	3.200000	0.039424	
0.904784	0.125000	0.000000	0.100000	0.100000	3.200000	0.039424	
0.907716	0.125000	-0.000000	0.100000	0.100000	3.200000	0.039424	
0.913461	0.125000	-0.000000	0.100000	0.100000	3.200000	0.039424	
0.921875	0.125000	0.000000	0.100000	0.100000	3.200000	0.039424	
0.930289	0.125000	-0.000000	0.100000	0.100000	3.200000	0.039424	
0.936034	0.125000	0.000000	0.100000	0.100000	3.200000	0.039424	
0.938966	0.125000	0.000000	0.100000	0.100000	3.200000	0.039424	
0.944711	0.125000	-0.000000	0.100000	0.100000	3.200000	0.039424	
0.953125	0.125000	0.000000	0.100000	0.100000	3.200000	0.039424	
0.961539	0.125000	-0.000000	0.100000	0.100000	3.200000	0.039424	
0.967284	0.125000	-0.000000	0.100000	0.100000	3.200000	0.039424	
0.970216	0.125000	0.000000	0.100000	0.100000	3.200000	0.039424	
0.975961	0.125000	-0.000000	0.100000	0.100000	3.200000	0.039424	
0.984375	0.125000	-0.000000	0.100000	0.100000	3.200000	0.039424	
0.992789	0.125000	0.000000	0.100000	0.100000	3.200000	0.039424	
0.998534	0.125000	-0.000000	0.100000	0.100000	3.200000	0.039424	
