TITLE = "DG1DMBX64-P3RK4w100iv80"
VARIABLES = "x" "Density" "Velocity in x" "Energy" "Pressure" "Temperature" "Fugacity"
ZONE T = "Final Time 0.10"
I = 256, J = 1, K = 1, F = POINT

0.001085	0.999999	0.000006	0.999990	0.999990	3.999966	0.282096	
0.005156	0.999998	0.000007	0.999988	0.999988	3.999959	0.282096	
0.010469	0.999998	0.000008	0.999985	0.999985	3.999948	0.282096	
0.014540	0.999997	0.000010	0.999982	0.999982	3.999938	0.282096	
0.016710	0.999997	0.000011	0.999980	0.999980	3.999931	0.282096	
0.020781	0.999997	0.000013	0.999976	0.999976	3.999917	0.282097	
0.026094	0.999996	0.000017	0.999969	0.999969	3.999895	0.282097	
0.030165	0.999995	0.000020	0.999963	0.999963	3.999874	0.282098	
0.032335	0.999994	0.000022	0.999960	0.999960	3.999862	0.282098	
0.036406	0.999993	0.000027	0.999951	0.999951	3.999834	0.282099	
0.041719	0.999991	0.000034	0.999938	0.999938	3.999790	0.282100	
0.045790	0.999989	0.000041	0.999926	0.999926	3.999747	0.282101	
0.047960	0.999988	0.000046	0.999918	0.999918	3.999721	0.282101	
0.052031	0.999985	0.000055	0.999901	0.999901	3.999664	0.282102	
0.057344	0.999980	0.000071	0.999874	0.999874	3.999573	0.282104	
0.061415	0.999976	0.000086	0.999848	0.999848	3.999487	0.282106	
0.063585	0.999974	0.000095	0.999832	0.999832	3.999434	0.282107	
0.067656	0.999968	0.000115	0.999797	0.999797	3.999318	0.282110	
0.072969	0.999958	0.000148	0.999741	0.999741	3.999131	0.282114	
0.077040	0.999949	0.000179	0.999688	0.999688	3.998953	0.282117	
0.079210	0.999944	0.000198	0.999655	0.999655	3.998844	0.282120	
0.083281	0.999931	0.000241	0.999584	0.999584	3.998609	0.282124	
0.088594	0.999911	0.000309	0.999469	0.999469	3.998230	0.282132	
0.092665	0.999892	0.000374	0.999360	0.999360	3.997872	0.282139	
0.094835	0.999880	0.000415	0.999293	0.999293	3.997652	0.282144	
0.098906	0.999854	0.000502	0.999149	0.999149	3.997179	0.282153	
0.104219	0.999811	0.000643	0.998916	0.998916	3.996419	0.282168	
0.108290	0.999771	0.000777	0.998698	0.998698	3.995707	0.282182	
0.110460	0.999746	0.000859	0.998565	0.998565	3.995274	0.282190	
0.114531	0.999692	0.001036	0.998280	0.998279	3.994348	0.282207	
0.119844	0.999604	0.001320	0.997825	0.997824	3.992876	0.282235	
0.123915	0.999522	0.001586	0.997401	0.997400	3.991510	0.282260	
0.126085	0.999471	0.001748	0.997145	0.997144	3.990685	0.282274	
0.130156	0.999362	0.002094	0.996600	0.996597	3.988933	0.282306	
0.135469	0.999189	0.002643	0.995743	0.995739	3.986190	0.282354	
0.139540	0.999027	0.003151	0.994957	0.994952	3.983684	0.282397	
0.141710	0.998929	0.003456	0.994487	0.994481	3.982187	0.282422	
0.145781	0.998721	0.004104	0.993497	0.993488	3.979042	0.282475	
0.151094	0.998393	0.005113	0.991967	0.991954	3.974201	0.282554	
0.155165	0.998093	0.006031	0.990589	0.990570	3.969853	0.282624	
0.157335	0.997913	0.006578	0.989773	0.989752	3.967288	0.282664	
0.161406	0.997534	0.007721	0.988080	0.988050	3.961969	0.282747	
0.166719	0.996951	0.009469	0.985519	0.985474	3.953952	0.282868	
0.170790	0.996426	0.011027	0.983259	0.983198	3.946898	0.282971	
0.172960	0.996116	0.011942	0.981941	0.981870	3.942793	0.283030	
0.177031	0.995473	0.013832	0.979242	0.979147	3.934398	0.283149	
0.182344	0.994501	0.016663	0.975248	0.975110	3.922008	0.283319	
0.186415	0.993644	0.019135	0.971802	0.971620	3.911339	0.283461	
0.188585	0.993145	0.020568	0.969823	0.969613	3.905220	0.283541	
0.192656	0.992124	0.023483	0.965831	0.965557	3.892888	0.283697	
0.197969	0.990614	0.027756	0.960058	0.959677	3.875078	0.283916	
0.202040	0.989310	0.031415	0.955187	0.954699	3.860057	0.284093	
0.204210	0.988561	0.033507	0.952430	0.951875	3.851557	0.284191	
0.208281	0.987048	0.037707	0.946950	0.946249	3.834659	0.284381	
0.213594	0.984856	0.043744	0.939200	0.938258	3.810743	0.284638	
0.217665	0.983001	0.048812	0.932802	0.931631	3.790967	0.284842	
0.219835	0.981948	0.051673	0.929231	0.927920	3.779916	0.284952	
0.223906	0.979849	0.057349	0.922232	0.920621	3.758217	0.285163	
0.229219	0.976861	0.065365	0.912531	0.910444	3.728039	0.285442	
0.233290	0.974377	0.071984	0.904675	0.902151	3.703499	0.285658	
0.235460	0.972983	0.075680	0.900347	0.897561	3.689934	0.285773	
0.239531	0.970234	0.082934	0.891969	0.888633	3.663583	0.285988	
0.244844	0.966385	0.093020	0.880569	0.876388	3.627493	0.286267	
0.248915	0.963232	0.101228	0.871498	0.866563	3.598566	0.286478	
0.251085	0.961479	0.105769	0.866555	0.861177	3.582718	0.286588	
0.255156	0.958056	0.114605	0.857092	0.850800	3.552193	0.286792	
0.260469	0.953325	0.126739	0.844414	0.836758	3.510901	0.287050	
0.264540	0.949500	0.136495	0.834481	0.825636	3.478194	0.287239	
0.266710	0.947391	0.141851	0.829122	0.819590	3.460411	0.287336	
0.270781	0.943303	0.152195	0.818961	0.808035	3.426407	0.287513	
0.276094	0.937719	0.166252	0.805536	0.792577	3.380872	0.287729	
0.280165	0.933249	0.177445	0.795154	0.780462	3.345140	0.287883	
0.282335	0.930800	0.183554	0.789600	0.773920	3.325824	0.287960	
0.286406	0.926085	0.195282	0.779156	0.761498	3.289105	0.288096	
0.291719	0.919702	0.211083	0.765527	0.745038	3.240345	0.288255	
0.295790	0.914638	0.223561	0.755114	0.732258	3.202391	0.288362	
0.297960	0.911881	0.230336	0.749586	0.725396	3.181977	0.288413	
0.302031	0.906597	0.243281	0.739267	0.712438	3.143350	0.288498	
0.307344	0.899497	0.260603	0.725944	0.695400	3.092396	0.288587	
0.311415	0.893903	0.274194	0.715872	0.682269	3.052986	0.288638	
0.313585	0.890871	0.281543	0.710562	0.675254	3.031880	0.288658	
0.317656	0.885088	0.295523	0.700720	0.662071	2.992113	0.288684	
0.322969	0.877369	0.314115	0.688145	0.644861	2.939976	0.288692	
0.327040	0.871325	0.328619	0.678733	0.631685	2.899884	0.288679	
0.329210	0.868061	0.336434	0.673803	0.624676	2.878487	0.288664	
0.333281	0.861859	0.351250	0.664724	0.611557	2.838316	0.288623	
0.338594	0.853626	0.370852	0.653237	0.594537	2.785935	0.288541	
0.342665	0.847216	0.386062	0.644725	0.581589	2.745883	0.288455	
0.344835	0.843767	0.394228	0.640297	0.574730	2.724590	0.288401	
0.348906	0.837239	0.409652	0.632198	0.561947	2.684762	0.288285	
0.354219	0.828618	0.429957	0.622051	0.545461	2.633110	0.288101	
0.358290	0.821939	0.445637	0.614607	0.532992	2.593827	0.287935	
0.360460	0.818357	0.454027	0.610761	0.526413	2.573021	0.287837	
0.364531	0.811601	0.469819	0.603775	0.514203	2.534265	0.287635	
0.369844	0.802729	0.490489	0.595121	0.498561	2.484330	0.287336	
0.373915	0.795896	0.506355	0.588844	0.486812	2.446614	0.287077	
0.376085	0.792245	0.514811	0.585626	0.480641	2.426729	0.286929	
0.380156	0.785384	0.530666	0.579824	0.469240	2.389860	0.286630	
0.385469	0.776424	0.551293	0.572722	0.454735	2.342714	0.286197	
0.389540	0.769563	0.567021	0.567635	0.443923	2.307403	0.285830	
0.391710	0.765915	0.575362	0.565051	0.438277	2.288905	0.285622	
0.395781	0.759089	0.590918	0.560436	0.427905	2.254837	0.285207	
0.401094	0.750239	0.610987	0.554867	0.414833	2.211738	0.284615	
0.405165	0.743512	0.626158	0.550938	0.405182	2.179828	0.284120	
0.407335	0.739951	0.634157	0.548961	0.400174	2.163246	0.283841	
0.411406	0.733321	0.648981	0.545470	0.391041	2.132986	0.283286	
0.416719	0.724795	0.667906	0.541328	0.379664	2.095288	0.282500	
0.420790	0.718371	0.682044	0.538460	0.371373	2.067861	0.281847	
0.422960	0.714991	0.689436	0.537036	0.367111	2.053790	0.281480	
0.427031	0.708737	0.703020	0.534552	0.359410	2.028453	0.280755	
0.432344	0.700760	0.720140	0.531664	0.349956	1.997582	0.279732	
0.436415	0.694797	0.732758	0.529704	0.343175	1.975684	0.278884	
0.438585	0.691675	0.739292	0.528746	0.339727	1.964664	0.278409	
0.442656	0.685929	0.751179	0.527099	0.333574	1.945240	0.277471	
0.447969	0.678649	0.765929	0.525226	0.326162	1.922419	0.276151	
0.452040	0.673237	0.776634	0.523984	0.320949	1.906900	0.275061	
0.454210	0.670408	0.782126	0.523384	0.318333	1.899338	0.274450	
0.458281	0.665198	0.792030	0.522367	0.313723	1.886494	0.273243	
0.463594	0.658578	0.804172	0.521230	0.308281	1.872402	0.271539	
0.467665	0.653620	0.812891	0.520485	0.304531	1.863659	0.270127	
0.469835	0.651011	0.817338	0.520127	0.302676	1.859729	0.269332	
0.473906	0.646158	0.825325	0.519518	0.299450	1.853725	0.267757	
0.479219	0.639867	0.835097	0.518828	0.295711	1.848579	0.265519	
0.483290	0.635027	0.842143	0.518360	0.293178	1.846711	0.263644	
0.485460	0.632424	0.845760	0.518126	0.291937	1.846461	0.262581	
0.489531	0.627471	0.852313	0.517708	0.289799	1.847413	0.260457	
0.494844	0.620803	0.860476	0.517183	0.287356	1.851511	0.257404	
0.498915	0.615466	0.866508	0.516775	0.285718	1.856921	0.254820	
0.501085	0.612521	0.869666	0.516551	0.284921	1.860644	0.253346	
0.505156	0.606764	0.875518	0.516105	0.283553	1.869278	0.250385	
0.510469	0.598717	0.883094	0.515452	0.281995	1.883998	0.246097	
0.514540	0.592062	0.888918	0.514872	0.280956	1.898152	0.242452	
0.516710	0.588319	0.892046	0.514528	0.280451	1.906797	0.240373	
0.520781	0.580899	0.897987	0.513803	0.279590	1.925225	0.236203	
0.526094	0.570354	0.905938	0.512670	0.278618	1.954001	0.230201	
0.530165	0.561552	0.912229	0.511629	0.277978	1.980066	0.225152	
0.532335	0.556590	0.915662	0.511004	0.277671	1.995515	0.222297	
0.536406	0.546756	0.922261	0.509683	0.277157	2.027649	0.216632	
0.541719	0.532870	0.931192	0.507634	0.276604	2.076332	0.208640	
0.545790	0.521424	0.938272	0.505784	0.276265	2.119315	0.202078	
0.547960	0.515044	0.942123	0.504691	0.276115	2.144401	0.198434	
0.552031	0.502571	0.949480	0.502425	0.275888	2.195809	0.191349	
0.557344	0.485373	0.959280	0.499022	0.275698	2.272049	0.181673	
0.561415	0.471570	0.966878	0.496057	0.275633	2.338003	0.174000	
0.563585	0.464024	0.970934	0.494347	0.275627	2.375974	0.169842	
0.567656	0.449573	0.978507	0.490896	0.275669	2.452717	0.161957	
0.572969	0.430297	0.988191	0.485920	0.275823	2.564018	0.151612	
0.577040	0.415348	0.995352	0.481761	0.276013	2.658139	0.143730	
0.579210	0.407363	0.999035	0.479428	0.276139	2.711473	0.139574	
0.583281	0.392422	1.005641	0.474847	0.276416	2.817541	0.131900	
0.588594	0.373178	1.013497	0.468512	0.276852	2.967508	0.122221	
0.592665	0.358757	1.018814	0.463425	0.277233	3.091037	0.115126	
0.594835	0.351230	1.021356	0.460645	0.277449	3.159749	0.111478	
0.598906	0.337453	1.025533	0.455328	0.277875	3.293795	0.104904	
0.604219	0.320274	1.029707	0.448248	0.278455	3.477703	0.096895	
0.608290	0.307790	1.031856	0.442761	0.278905	3.624610	0.091212	
0.610460	0.301400	1.032608	0.439832	0.279143	3.704622	0.088348	
0.614531	0.289918	1.033266	0.434345	0.279581	3.857384	0.083282	
0.619844	0.275976	1.032637	0.427262	0.280120	4.060072	0.077273	
0.623915	0.266094	1.031029	0.421929	0.280498	4.216514	0.073111	
0.626085	0.261115	1.029785	0.419134	0.280683	4.299763	0.071045	
0.630156	0.252298	1.026756	0.413988	0.280998	4.455018	0.067439	
0.635469	0.241804	1.021528	0.407499	0.281335	4.653933	0.063238	
0.639540	0.234505	1.016635	0.402718	0.281532	4.802158	0.060375	
0.641710	0.230868	1.013749	0.400245	0.281615	4.879224	0.058968	
0.645781	0.224498	1.007866	0.395746	0.281724	5.019621	0.056533	
0.651094	0.217030	0.999424	0.390171	0.281780	5.193380	0.053730	
0.655165	0.211906	0.992486	0.386124	0.281757	5.318527	0.051841	
0.657335	0.209374	0.988662	0.384049	0.281722	5.382185	0.050918	
0.661406	0.204970	0.981299	0.380302	0.281615	5.495726	0.049329	
0.666719	0.199856	0.971454	0.375700	0.281396	5.631962	0.047513	
0.670790	0.196379	0.963820	0.372385	0.281172	5.727137	0.046297	
0.672960	0.194669	0.959749	0.370690	0.281034	5.774605	0.045705	
0.677031	0.191709	0.952137	0.367639	0.280741	5.857657	0.044689	
0.682344	0.188289	0.942326	0.363897	0.280298	5.954619	0.043534	
0.686415	0.185972	0.934937	0.361194	0.279914	6.020577	0.042761	
0.688585	0.184833	0.931056	0.359807	0.279694	6.052915	0.042386	
0.692656	0.182862	0.923886	0.357297	0.279255	6.108538	0.041743	
0.697969	0.180583	0.914769	0.354186	0.278630	6.171798	0.041011	
0.702040	0.179032	0.907959	0.351908	0.278111	6.213667	0.040521	
0.704210	0.178267	0.904390	0.350725	0.277821	6.233809	0.040283	
0.708281	0.176936	0.897788	0.348556	0.277249	6.267785	0.039873	
0.713594	0.175377	0.889327	0.345799	0.276446	6.305197	0.039405	
0.717665	0.174298	0.882922	0.343721	0.275783	6.329006	0.039089	
0.719835	0.173759	0.879525	0.342619	0.275412	6.340104	0.038934	
0.723906	0.172806	0.873155	0.340554	0.274680	6.358114	0.038665	
0.729219	0.171659	0.864792	0.337836	0.273647	6.376504	0.038353	
0.733290	0.170840	0.858280	0.335711	0.272787	6.386968	0.038139	
0.735460	0.170419	0.854752	0.334556	0.272302	6.391339	0.038032	
0.739531	0.169655	0.847986	0.332334	0.271336	6.397358	0.037844	
0.744844	0.168692	0.838786	0.329297	0.269954	6.401095	0.037618	
0.748915	0.167970	0.831369	0.326836	0.268788	6.400876	0.037457	
0.751085	0.167587	0.827260	0.325470	0.268125	6.399681	0.037375	
0.755156	0.166866	0.819203	0.322784	0.266793	6.395392	0.037227	
0.760469	0.165909	0.807892	0.319005	0.264862	6.385706	0.037042	
0.764540	0.165153	0.798491	0.315862	0.263212	6.374978	0.036904	
0.766710	0.164740	0.793183	0.314088	0.262266	6.368025	0.036832	
0.770781	0.163937	0.782592	0.310553	0.260351	6.352487	0.036697	
0.776094	0.162826	0.767373	0.305487	0.257546	6.326907	0.036522	
0.780165	0.161916	0.754463	0.301211	0.255129	6.302732	0.036387	
0.782335	0.161407	0.747087	0.298778	0.253735	6.288051	0.036315	
0.786406	0.160402	0.732208	0.293896	0.250898	6.256739	0.036179	
0.791719	0.158977	0.710512	0.286842	0.246714	6.207536	0.036000	
0.795790	0.157789	0.691894	0.280856	0.243088	6.162368	0.035861	
0.797960	0.157117	0.681187	0.277443	0.240990	6.135286	0.035788	
0.802031	0.155784	0.659500	0.270595	0.236717	6.078098	0.035650	
0.807344	0.153885	0.627738	0.260730	0.230410	5.989171	0.035476	
0.811415	0.152302	0.600479	0.252418	0.224960	5.908263	0.035351	
0.813585	0.151412	0.584831	0.247712	0.221818	5.860009	0.035289	
0.817656	0.149657	0.553318	0.238375	0.215465	5.758919	0.035184	
0.822969	0.147203	0.507779	0.225208	0.206231	5.603989	0.035083	
0.827040	0.145218	0.469620	0.214464	0.198451	5.466303	0.035043	
0.829210	0.144130	0.448196	0.208544	0.194068	5.385930	0.035039	
0.833281	0.142053	0.406296	0.197193	0.185468	5.222482	0.035070	
0.838594	0.139336	0.349324	0.182220	0.173718	4.987033	0.035202	
0.842665	0.137312	0.305248	0.170984	0.164587	4.794538	0.035380	
0.844835	0.136276	0.282101	0.165201	0.159778	4.689840	0.035503	
0.848906	0.134440	0.240127	0.154909	0.151033	4.493697	0.035781	
0.854219	0.132329	0.190225	0.142985	0.140591	4.249734	0.036216	
0.858290	0.130954	0.156710	0.135159	0.133551	4.079328	0.036580	
0.860460	0.130312	0.140788	0.131488	0.130197	3.996460	0.036777	
0.864531	0.129268	0.114481	0.125488	0.124641	3.856812	0.037137	
0.869844	0.128193	0.086808	0.119257	0.118774	3.706116	0.037569	
0.873915	0.127553	0.070071	0.115525	0.115212	3.612988	0.037860	
0.876085	0.127268	0.062518	0.113849	0.113600	3.570439	0.038000	
0.880156	0.126818	0.050532	0.111198	0.111036	3.502205	0.038233	
0.885469	0.126368	0.038392	0.108523	0.108429	3.432166	0.038484	
0.889540	0.126105	0.031221	0.106945	0.106883	3.390279	0.038640	
0.891710	0.125988	0.027991	0.106235	0.106185	3.371289	0.038713	
0.895781	0.125802	0.022876	0.105109	0.105076	3.340999	0.038831	
0.901094	0.125614	0.017662	0.103961	0.103942	3.309866	0.038955	
0.905165	0.125503	0.014550	0.103275	0.103261	3.291114	0.039031	
0.907335	0.125453	0.013135	0.102962	0.102951	3.282550	0.039066	
0.911406	0.125373	0.010873	0.102462	0.102454	3.268782	0.039123	
0.916719	0.125290	0.008532	0.101942	0.101937	3.254436	0.039184	
0.920790	0.125241	0.007111	0.101625	0.101622	3.245658	0.039221	
0.922960	0.125218	0.006458	0.101480	0.101477	3.241610	0.039238	
0.927031	0.125181	0.005403	0.101243	0.101241	3.235033	0.039267	
0.932344	0.125143	0.004296	0.100994	0.100993	3.228087	0.039297	
0.936415	0.125120	0.003614	0.100840	0.100840	3.223779	0.039316	
0.938585	0.125109	0.003298	0.100769	0.100768	3.221777	0.039325	
0.942656	0.125091	0.002784	0.100652	0.100652	3.218495	0.039339	
0.947969	0.125073	0.002237	0.100527	0.100527	3.214984	0.039355	
0.952040	0.125061	0.001896	0.100449	0.100449	3.212778	0.039365	
0.954210	0.125056	0.001737	0.100412	0.100412	3.211745	0.039369	
0.958281	0.125047	0.001476	0.100352	0.100352	3.210040	0.039377	
0.963594	0.125038	0.001196	0.100287	0.100287	3.208201	0.039386	
0.967665	0.125032	0.001021	0.100246	0.100246	3.207035	0.039391	
0.969835	0.125030	0.000938	0.100226	0.100226	3.206485	0.039393	
0.973906	0.125025	0.000803	0.100194	0.100194	3.205571	0.039398	
0.979219	0.125020	0.000656	0.100159	0.100159	3.204574	0.039402	
0.983290	0.125017	0.000564	0.100137	0.100137	3.203934	0.039405	
0.985460	0.125016	0.000520	0.100126	0.100126	3.203631	0.039407	
0.989531	0.125013	0.000449	0.100108	0.100108	3.203125	0.039409	
0.994844	0.125011	0.000372	0.100089	0.100089	3.202566	0.039411	
0.998915	0.125009	0.000325	0.100076	0.100076	3.202202	0.039413	
