TITLE = "DG1DMBX32-P4RK3w10000iv20"
VARIABLES = "x" "Density" "Velocity in x" "Energy" "Pressure" "Temperature" "Fugacity"
ZONE T = "Final Time 0.10"
I = 160, J = 1, K = 1, F = POINT

0.001466	0.995988	0.000000	0.912714	0.912714	3.665562	0.293501	
0.007211	0.995988	-0.000000	0.912714	0.912714	3.665562	0.293501	
0.015625	0.995988	0.000000	0.912714	0.912714	3.665562	0.293501	
0.024039	0.995988	0.000000	0.912714	0.912714	3.665562	0.293501	
0.029784	0.995988	-0.000000	0.912714	0.912714	3.665562	0.293501	
0.032716	0.995988	0.000000	0.912714	0.912714	3.665562	0.293501	
0.038461	0.995988	0.000000	0.912714	0.912714	3.665562	0.293501	
0.046875	0.995988	-0.000000	0.912714	0.912714	3.665562	0.293501	
0.055289	0.995988	0.000000	0.912714	0.912714	3.665562	0.293501	
0.061034	0.995988	0.000000	0.912714	0.912714	3.665562	0.293501	
0.063966	0.995988	-0.000000	0.912714	0.912714	3.665562	0.293501	
0.069711	0.995988	0.000000	0.912714	0.912714	3.665562	0.293501	
0.078125	0.995988	0.000000	0.912714	0.912714	3.665562	0.293501	
0.086539	0.995988	-0.000000	0.912714	0.912714	3.665562	0.293501	
0.092284	0.995988	0.000000	0.912714	0.912714	3.665562	0.293501	
0.095216	0.995988	-0.000000	0.912714	0.912714	3.665562	0.293501	
0.100961	0.995988	-0.000000	0.912714	0.912714	3.665562	0.293501	
0.109375	0.995988	0.000000	0.912714	0.912714	3.665562	0.293501	
0.117789	0.995988	-0.000000	0.912714	0.912714	3.665562	0.293501	
0.123534	0.995988	-0.000000	0.912714	0.912714	3.665562	0.293501	
0.126466	0.995988	0.000000	0.912714	0.912714	3.665562	0.293501	
0.132211	0.995988	-0.000000	0.912714	0.912714	3.665562	0.293501	
0.140625	0.995988	-0.000000	0.912714	0.912714	3.665562	0.293501	
0.149039	0.995988	0.000000	0.912714	0.912714	3.665562	0.293501	
0.154784	0.995988	-0.000000	0.912714	0.912714	3.665562	0.293501	
0.157716	0.995988	-0.000000	0.912714	0.912714	3.665562	0.293501	
0.163461	0.995988	0.000000	0.912714	0.912714	3.665562	0.293501	
0.171875	0.995988	-0.000000	0.912714	0.912714	3.665562	0.293501	
0.180289	0.995988	-0.000000	0.912714	0.912714	3.665562	0.293501	
0.186034	0.995988	0.000000	0.912714	0.912714	3.665561	0.293501	
0.188966	0.995988	-0.000000	0.912715	0.912715	3.665563	0.293501	
0.194711	0.995988	-0.000000	0.912715	0.912715	3.665563	0.293501	
0.203125	0.995988	0.000000	0.912714	0.912714	3.665561	0.293501	
0.211539	0.995989	-0.000001	0.912715	0.912715	3.665565	0.293501	
0.217284	0.995989	-0.000001	0.912715	0.912715	3.665564	0.293501	
0.220216	0.995987	0.000002	0.912712	0.912712	3.665555	0.293501	
0.225961	0.995988	0.000000	0.912714	0.912714	3.665562	0.293501	
0.234375	0.995989	-0.000002	0.912716	0.912716	3.665568	0.293501	
0.242789	0.995986	0.000005	0.912709	0.912709	3.665547	0.293501	
0.248534	0.995990	-0.000004	0.912719	0.912719	3.665576	0.293500	
0.251466	0.995993	-0.000011	0.912727	0.912727	3.665596	0.293501	
0.257211	0.995986	0.000005	0.912709	0.912709	3.665546	0.293501	
0.265625	0.995987	0.000003	0.912710	0.912710	3.665553	0.293501	
0.274039	0.995997	-0.000020	0.912738	0.912738	3.665625	0.293501	
0.279784	0.995975	0.000036	0.912672	0.912672	3.665443	0.293501	
0.282716	0.995970	0.000040	0.912667	0.912667	3.665441	0.293500	
0.288461	0.996002	-0.000035	0.912755	0.912755	3.665674	0.293500	
0.296875	0.995989	0.000001	0.912713	0.912713	3.665553	0.293501	
0.305289	0.995954	0.000080	0.912624	0.912624	3.665325	0.293500	
0.311034	0.996061	-0.000185	0.912925	0.912925	3.666139	0.293499	
0.313966	0.996062	-0.000167	0.912906	0.912906	3.666062	0.293502	
0.319711	0.995924	0.000164	0.912527	0.912527	3.665046	0.293502	
0.328125	0.995979	0.000008	0.912706	0.912706	3.665563	0.293498	
0.336539	0.996156	-0.000390	0.913160	0.913160	3.666736	0.293503	
0.342284	0.995747	0.000627	0.912003	0.912003	3.663592	0.293508	
0.345216	0.995606	0.000895	0.911686	0.911686	3.662839	0.293497	
0.350961	0.996152	-0.000444	0.913209	0.913209	3.666949	0.293493	
0.359375	0.996253	-0.000564	0.913401	0.913401	3.667346	0.293507	
0.367789	0.995180	0.001909	0.910442	0.910440	3.659397	0.293509	
0.373534	0.995894	-0.000064	0.912782	0.912782	3.666183	0.293448	
0.376466	0.997358	-0.003163	0.916500	0.916495	3.675689	0.293499	
0.382211	0.996834	-0.001834	0.914948	0.914946	3.671410	0.293516	
0.390625	0.994305	0.003897	0.907862	0.907855	3.652220	0.293539	
0.399039	0.996149	-0.000513	0.913888	0.913887	3.669682	0.293383	
0.404784	1.000430	-0.009718	0.924141	0.924094	3.694788	0.293641	
0.407716	0.998646	-0.007184	0.920497	0.920472	3.686879	0.293432	
0.413461	0.990179	0.014500	0.895429	0.895325	3.616822	0.293748	
0.421875	0.961423	0.081304	0.824287	0.821109	3.416225	0.293472	
0.430289	0.920465	0.177239	0.737212	0.722754	3.140823	0.293029	
0.436034	0.890027	0.247773	0.683272	0.655952	2.948012	0.292458	
0.438966	0.873456	0.286283	0.657336	0.621543	2.846363	0.292093	
0.444711	0.841855	0.362122	0.612308	0.557110	2.647061	0.291931	
0.453125	0.791478	0.478449	0.558141	0.467551	2.362925	0.290495	
0.461539	0.739622	0.603265	0.517496	0.382912	2.070851	0.289975	
0.467284	0.702409	0.692148	0.497484	0.329233	1.874879	0.289420	
0.470216	0.684307	0.735118	0.490101	0.305202	1.784005	0.289054	
0.475961	0.650938	0.811796	0.480164	0.265676	1.632570	0.287428	
0.484375	0.625569	0.877977	0.476733	0.235625	1.506628	0.287539	
0.492789	0.625138	0.882029	0.478764	0.235593	1.507458	0.287262	
0.498534	0.622642	0.879774	0.478841	0.237877	1.528180	0.284169	
0.501466	0.621303	0.881604	0.479347	0.237901	1.531625	0.283239	
0.507211	0.612392	0.887236	0.476956	0.235922	1.540986	0.278327	
0.515625	0.639529	0.891175	0.490044	0.236090	1.476647	0.296925	
0.524039	0.573378	0.900897	0.468718	0.236036	1.646635	0.252097	
0.529784	0.438352	0.902196	0.417357	0.238957	2.180501	0.167483	
0.532716	0.341528	0.911748	0.380377	0.238423	2.792435	0.115308	
0.538461	0.241967	0.892498	0.331312	0.234942	3.883878	0.069270	
0.546875	0.208920	0.807378	0.292488	0.224395	4.296278	0.056867	
0.555289	0.188218	0.717096	0.257045	0.208652	4.434276	0.050428	
0.561034	0.171773	0.643624	0.232612	0.197033	4.588228	0.045244	
0.563966	0.171386	0.603050	0.224085	0.192921	4.502610	0.045569	
0.569711	0.161991	0.537066	0.205254	0.181892	4.491422	0.043124	
0.578125	0.153214	0.462708	0.187205	0.170803	4.459199	0.040935	
0.586539	0.148064	0.381918	0.170599	0.159801	4.317079	0.040205	
0.592284	0.140905	0.258341	0.144983	0.140281	3.982273	0.039837	
0.595216	0.130155	0.117453	0.116519	0.115621	3.553337	0.038955	
0.600961	0.121577	-0.055362	0.090982	0.090795	2.987250	0.039686	
0.609375	0.126818	0.030245	0.103431	0.103373	3.260518	0.039625	
0.617789	0.125474	0.010824	0.100095	0.100088	3.190710	0.039631	
0.623534	0.122411	-0.044492	0.092813	0.092692	3.028868	0.039683	
0.626466	0.124601	-0.008030	0.097691	0.097687	3.135988	0.039697	
0.632211	0.126122	0.020583	0.101752	0.101725	3.226251	0.039616	
0.640625	0.124512	-0.007111	0.097757	0.097754	3.140385	0.039641	
0.649039	0.124879	-0.001357	0.098595	0.098595	3.158094	0.039646	
0.654784	0.125644	0.011217	0.100368	0.100361	3.195082	0.039657	
0.657716	0.124952	0.000951	0.098965	0.098965	3.168085	0.039607	
0.663461	0.124664	-0.004824	0.098073	0.098072	3.146747	0.039649	
0.671875	0.125077	0.002203	0.099101	0.099101	3.169272	0.039639	
0.680289	0.124929	-0.000256	0.098743	0.098743	3.161573	0.039640	
0.686034	0.124788	-0.002616	0.098416	0.098416	3.154661	0.039639	
0.688966	0.125000	0.000838	0.098873	0.098873	3.163912	0.039648	
0.694711	0.124995	0.000861	0.098911	0.098911	3.165273	0.039638	
0.703125	0.124913	-0.000553	0.098699	0.098699	3.160550	0.039642	
0.711539	0.124960	0.000256	0.098815	0.098815	3.163080	0.039641	
0.717284	0.124968	0.000391	0.098833	0.098833	3.163465	0.039641	
0.720216	0.124921	-0.000428	0.098726	0.098726	3.161232	0.039640	
0.725961	0.124942	-0.000061	0.098768	0.098768	3.162053	0.039641	
0.734375	0.124951	0.000093	0.098793	0.098793	3.162620	0.039641	
0.742789	0.124941	-0.000083	0.098768	0.098768	3.162069	0.039641	
0.748534	0.124946	-0.000004	0.098779	0.098779	3.162302	0.039641	
0.751466	0.124951	0.000109	0.098794	0.098794	3.162626	0.039641	
0.757211	0.124944	-0.000022	0.098776	0.098776	3.162259	0.039641	
0.765625	0.124945	-0.000003	0.098779	0.098779	3.162305	0.039641	
0.774039	0.124946	0.000013	0.098781	0.098781	3.162358	0.039641	
0.779784	0.124944	-0.000018	0.098777	0.098777	3.162267	0.039641	
0.782716	0.124945	-0.000010	0.098778	0.098778	3.162281	0.039641	
0.788461	0.124946	0.000008	0.098780	0.098780	3.162344	0.039641	
0.796875	0.124945	-0.000003	0.098779	0.098779	3.162307	0.039641	
0.805289	0.124945	0.000000	0.098779	0.098779	3.162319	0.039641	
0.811034	0.124946	0.000004	0.098780	0.098780	3.162329	0.039641	
0.813966	0.124945	-0.000003	0.098779	0.098779	3.162311	0.039641	
0.819711	0.124945	-0.000001	0.098779	0.098779	3.162315	0.039641	
0.828125	0.124945	0.000001	0.098779	0.098779	3.162319	0.039641	
0.836539	0.124945	-0.000001	0.098779	0.098779	3.162315	0.039641	
0.842284	0.124945	0.000000	0.098779	0.098779	3.162317	0.039641	
0.845216	0.124945	0.000001	0.098779	0.098779	3.162319	0.039641	
0.850961	0.124945	-0.000000	0.098779	0.098779	3.162317	0.039641	
0.859375	0.124945	0.000000	0.098779	0.098779	3.162317	0.039641	
0.867789	0.124945	0.000000	0.098779	0.098779	3.162317	0.039641	
0.873534	0.124945	-0.000000	0.098779	0.098779	3.162317	0.039641	
0.876466	0.124945	0.000000	0.098779	0.098779	3.162317	0.039641	
0.882211	0.124945	0.000000	0.098779	0.098779	3.162317	0.039641	
0.890625	0.124945	-0.000000	0.098779	0.098779	3.162317	0.039641	
0.899039	0.124945	0.000000	0.098779	0.098779	3.162317	0.039641	
0.904784	0.124945	0.000000	0.098779	0.098779	3.162317	0.039641	
0.907716	0.124945	-0.000000	0.098779	0.098779	3.162317	0.039641	
0.913461	0.124945	0.000000	0.098779	0.098779	3.162317	0.039641	
0.921875	0.124945	-0.000000	0.098779	0.098779	3.162317	0.039641	
0.930289	0.124945	-0.000000	0.098779	0.098779	3.162317	0.039641	
0.936034	0.124945	0.000000	0.098779	0.098779	3.162317	0.039641	
0.938966	0.124945	-0.000000	0.098779	0.098779	3.162317	0.039641	
0.944711	0.124945	-0.000000	0.098779	0.098779	3.162317	0.039641	
0.953125	0.124945	0.000000	0.098779	0.098779	3.162317	0.039641	
0.961539	0.124945	-0.000000	0.098779	0.098779	3.162317	0.039641	
0.967284	0.124945	-0.000000	0.098779	0.098779	3.162317	0.039641	
0.970216	0.124945	0.000000	0.098779	0.098779	3.162317	0.039641	
0.975961	0.124945	-0.000000	0.098779	0.098779	3.162317	0.039641	
0.984375	0.124945	0.000000	0.098779	0.098779	3.162317	0.039641	
0.992789	0.124945	0.000000	0.098779	0.098779	3.162317	0.039641	
0.998534	0.124945	-0.000000	0.098779	0.098779	3.162317	0.039641	
