TITLE = "DG1DBEX64-P4RK4w10iv80"
VARIABLES = "x" "Density" "Velocity in x" "Energy" "Pressure" "Temperature" "Fugacity"
ZONE T = "Final Time 0.10"
I = 320, J = 1, K = 1, F = POINT

0.000733	1.260029	-0.000039	1.114569	1.114569	3.987418	0.282369	
0.003606	1.260088	0.000112	1.114934	1.114934	3.988875	0.282338	
0.007813	1.260159	0.000264	1.115419	1.115419	3.989867	0.282323	
0.012019	1.260198	0.000416	1.115651	1.115651	3.990658	0.282308	
0.014892	1.260201	0.000557	1.115583	1.115583	3.990678	0.282308	
0.016358	1.260196	0.000642	1.115481	1.115481	3.990101	0.282323	
0.019231	1.260169	0.000843	1.115140	1.115140	3.989390	0.282338	
0.023438	1.260117	0.001140	1.114559	1.114558	3.987434	0.282384	
0.027644	1.260086	0.001328	1.114221	1.114220	3.986150	0.282414	
0.030517	1.260089	0.001353	1.114255	1.114254	3.986169	0.282414	
0.031983	1.260093	0.001349	1.114311	1.114310	3.986741	0.282399	
0.034856	1.260102	0.001339	1.114424	1.114423	3.986794	0.282399	
0.039063	1.260090	0.001401	1.114337	1.114336	3.986721	0.282399	
0.043269	1.260029	0.001635	1.113736	1.113735	3.984706	0.282444	
0.046142	1.259954	0.001903	1.113024	1.113022	3.982609	0.282489	
0.047608	1.259908	0.002062	1.112604	1.112602	3.981238	0.282520	
0.050481	1.259820	0.002366	1.111806	1.111802	3.978516	0.282580	
0.054688	1.259738	0.002645	1.111090	1.111085	3.976378	0.282625	
0.058894	1.259728	0.002676	1.111043	1.111038	3.976311	0.282625	
0.061767	1.259734	0.002647	1.111152	1.111148	3.976892	0.282610	
0.063233	1.259730	0.002659	1.111139	1.111135	3.976862	0.282610	
0.066106	1.259700	0.002755	1.110903	1.110898	3.976132	0.282625	
0.070313	1.259577	0.003163	1.109847	1.109840	3.972655	0.282701	
0.074519	1.259363	0.003858	1.108065	1.108055	3.967535	0.282807	
0.077392	1.259201	0.004374	1.106768	1.106756	3.963280	0.282897	
0.078858	1.259131	0.004596	1.106217	1.106204	3.961763	0.282927	
0.081731	1.259045	0.004867	1.105554	1.105540	3.959606	0.282973	
0.085938	1.259016	0.004947	1.105394	1.105378	3.958885	0.282988	
0.090144	1.259008	0.004951	1.105443	1.105427	3.959376	0.282973	
0.093017	1.258941	0.005153	1.104974	1.104957	3.957878	0.283003	
0.094483	1.258883	0.005333	1.104534	1.104516	3.956441	0.283033	
0.097356	1.258704	0.005891	1.103171	1.103149	3.952629	0.283109	
0.101563	1.258323	0.007053	1.100384	1.100353	3.943808	0.283290	
0.105769	1.257936	0.008208	1.097677	1.097635	3.935504	0.283456	
0.108642	1.257780	0.008666	1.096630	1.096583	3.932394	0.283517	
0.110108	1.257744	0.008771	1.096398	1.096350	3.931634	0.283532	
0.112981	1.257726	0.008811	1.096349	1.096300	3.931520	0.283532	
0.117188	1.257676	0.008928	1.096154	1.096104	3.931212	0.283532	
0.121394	1.257433	0.009626	1.094595	1.094536	3.926498	0.283622	
0.124267	1.257110	0.010571	1.092438	1.092368	3.920225	0.283743	
0.125733	1.256904	0.011168	1.091091	1.091012	3.915750	0.283834	
0.128606	1.256428	0.012517	1.088095	1.087997	3.906963	0.284000	
0.132813	1.255809	0.014247	1.084327	1.084200	3.895721	0.284211	
0.137019	1.255504	0.015085	1.082561	1.082418	3.890135	0.284317	
0.139892	1.255473	0.015157	1.082453	1.082309	3.889943	0.284317	
0.141358	1.255449	0.015208	1.082383	1.082238	3.889797	0.284317	
0.144231	1.255331	0.015507	1.081806	1.081655	3.888014	0.284347	
0.148438	1.254843	0.016832	1.079031	1.078853	3.879737	0.284498	
0.152644	1.253943	0.019277	1.073891	1.073658	3.864754	0.284770	
0.155517	1.253179	0.021308	1.069718	1.069434	3.852226	0.284997	
0.156983	1.252790	0.022325	1.067665	1.067352	3.846196	0.285103	
0.159856	1.252182	0.023906	1.064507	1.064149	3.836761	0.285269	
0.164063	1.251759	0.024996	1.062386	1.061995	3.830542	0.285374	
0.168269	1.251640	0.025274	1.061927	1.061528	3.829297	0.285390	
0.171142	1.251378	0.025915	1.060741	1.060320	3.825628	0.285450	
0.172608	1.251136	0.026523	1.059573	1.059133	3.822089	0.285510	
0.175481	1.250433	0.028324	1.056058	1.055556	3.812129	0.285677	
0.179688	1.248919	0.032153	1.048688	1.048043	3.790104	0.286054	
0.183894	1.247213	0.036362	1.040813	1.039988	3.767049	0.286432	
0.186767	1.246319	0.038520	1.036891	1.035966	3.755074	0.286628	
0.188233	1.246033	0.039217	1.035628	1.034670	3.751835	0.286673	
0.191106	1.245775	0.039842	1.034524	1.033536	3.748262	0.286734	
0.195313	1.245492	0.040497	1.033433	1.032412	3.745045	0.286779	
0.199519	1.244553	0.042701	1.029574	1.028439	3.733875	0.286945	
0.202392	1.243315	0.045655	1.024325	1.023030	3.718443	0.287187	
0.203858	1.242569	0.047437	1.021169	1.019771	3.708993	0.287338	
0.206731	1.240842	0.051480	1.014152	1.012508	3.688273	0.287655	
0.210938	1.238409	0.057058	1.004741	1.002725	3.660537	0.288063	
0.215144	1.236915	0.060431	0.999215	0.996956	3.644372	0.288290	
0.218017	1.236623	0.061116	0.998093	0.995783	3.641186	0.288335	
0.219483	1.236517	0.061358	0.997712	0.995385	3.640074	0.288350	
0.222356	1.236049	0.062381	0.996110	0.993705	3.635371	0.288410	
0.226563	1.234256	0.066345	0.989791	0.987075	3.617072	0.288652	
0.230769	1.231150	0.073237	0.978838	0.975536	3.584467	0.289105	
0.233642	1.228670	0.078658	0.970421	0.966620	3.559554	0.289438	
0.235108	1.227386	0.081406	0.966269	0.962202	3.547370	0.289589	
0.237981	1.225249	0.085930	0.959557	0.955033	3.527479	0.289830	
0.242188	1.223577	0.089482	0.954354	0.949455	3.511760	0.290027	
0.246394	1.223059	0.090636	0.952642	0.947618	3.506448	0.290102	
0.249267	1.222185	0.092453	0.950053	0.944830	3.499099	0.290178	
0.250733	1.221321	0.094217	0.947573	0.942153	3.491828	0.290253	
0.253606	1.218934	0.099170	0.940550	0.934556	3.470776	0.290495	
0.257813	1.214261	0.108818	0.927092	0.919903	3.430474	0.290948	
0.262019	1.209338	0.118766	0.913731	0.905202	3.390051	0.291371	
0.264892	1.206680	0.123975	0.907052	0.897779	3.369783	0.291552	
0.266358	1.205762	0.125792	0.904729	0.895189	3.362866	0.291613	
0.269231	1.204959	0.127461	0.902530	0.892742	3.356159	0.291688	
0.273438	1.204096	0.129270	0.900141	0.890080	3.348682	0.291779	
0.277644	1.201115	0.135031	0.893016	0.882066	3.326812	0.291960	
0.280517	1.197246	0.142483	0.883941	0.871788	3.299274	0.292172	
0.281983	1.195103	0.146660	0.878860	0.866007	3.283544	0.292307	
0.284856	1.190522	0.155459	0.868427	0.854041	3.251076	0.292564	
0.289063	1.184389	0.166961	0.855371	0.838863	3.209995	0.292836	
0.293269	1.180631	0.173871	0.847867	0.830021	3.186699	0.292942	
0.296142	1.179914	0.175357	0.846112	0.827970	3.180716	0.293017	
0.297608	1.179740	0.175791	0.845533	0.827305	3.178937	0.293048	
0.300481	1.178426	0.178273	0.842800	0.824074	3.169758	0.293123	
0.304688	1.173122	0.187826	0.832889	0.812196	3.138380	0.293229	
0.308894	1.164731	0.202983	0.817549	0.793555	3.088731	0.293410	
0.311767	1.159018	0.213300	0.807397	0.781031	3.055266	0.293531	
0.313233	1.156220	0.218228	0.802748	0.775216	3.040128	0.293546	
0.316106	1.151583	0.226233	0.795471	0.766002	3.015795	0.293546	
0.320313	1.148109	0.232316	0.789976	0.758994	2.997227	0.293561	
0.324519	1.147132	0.234377	0.787799	0.756292	2.989359	0.293667	
0.327392	1.144881	0.238363	0.784194	0.751669	2.977246	0.293682	
0.328858	1.142436	0.242440	0.780780	0.747205	2.965718	0.293637	
0.331731	1.135936	0.253385	0.771705	0.735239	2.934784	0.293531	
0.335938	1.124977	0.271994	0.756694	0.715080	2.881866	0.293395	
0.340144	1.115396	0.288089	0.744400	0.698114	2.837492	0.293214	
0.343017	1.110545	0.295869	0.738951	0.690343	2.817715	0.293017	
0.344483	1.108773	0.298712	0.736981	0.687514	2.810593	0.292942	
0.347356	1.107573	0.300921	0.735214	0.685067	2.803770	0.292972	
0.351563	1.105879	0.304161	0.732537	0.681383	2.792976	0.293063	
0.355769	1.098260	0.316341	0.724436	0.669483	2.762668	0.292730	
0.358642	1.088670	0.331434	0.715020	0.655226	2.726910	0.292217	
0.360108	1.083941	0.339065	0.710272	0.647964	2.708304	0.292005	
0.362981	1.075249	0.353070	0.701832	0.634812	2.674266	0.291613	
0.367188	1.065140	0.368936	0.692953	0.620463	2.637874	0.291024	
0.371394	1.059275	0.377804	0.688400	0.612802	2.619002	0.290586	
0.374267	1.058173	0.379842	0.687056	0.610720	2.612861	0.290616	
0.375733	1.058122	0.380249	0.686587	0.610091	2.610523	0.290706	
0.378606	1.055120	0.385120	0.683900	0.605654	2.598500	0.290586	
0.382813	1.042537	0.403875	0.675160	0.590133	2.561045	0.289513	
0.387019	1.025032	0.430218	0.663693	0.568833	2.508802	0.288018	
0.389892	1.016169	0.443912	0.657908	0.557786	2.480878	0.287323	
0.391358	1.012394	0.449600	0.655662	0.553339	2.469772	0.286991	
0.394231	1.005914	0.458886	0.652348	0.546437	2.453727	0.286281	
0.398438	1.001018	0.465993	0.649786	0.541101	2.441062	0.285767	
0.402644	0.999404	0.469130	0.648139	0.538163	2.431885	0.285828	
0.405517	0.994636	0.476284	0.645552	0.532737	2.418180	0.285390	
0.406983	0.989036	0.484086	0.643203	0.527318	2.406261	0.284680	
0.409856	0.975144	0.503658	0.637570	0.513887	2.376205	0.282927	
0.414063	0.956177	0.531080	0.630087	0.495244	2.332787	0.280616	
0.418269	0.944650	0.547753	0.625898	0.484185	2.306680	0.279182	
0.421142	0.939152	0.555128	0.624387	0.479679	2.297818	0.278321	
0.422608	0.936373	0.558789	0.623669	0.477480	2.293369	0.277883	
0.425481	0.934565	0.561540	0.622887	0.475540	2.288297	0.277701	
0.429688	0.931268	0.566886	0.621342	0.471706	2.277503	0.277444	
0.433894	0.916204	0.587346	0.617676	0.459642	2.253070	0.275058	
0.436767	0.897463	0.612360	0.613997	0.445729	2.226889	0.271841	
0.438233	0.889757	0.623043	0.612439	0.439745	2.214704	0.270572	
0.441106	0.879462	0.637651	0.610328	0.431534	2.196851	0.268941	
0.445313	0.869869	0.650481	0.608787	0.424755	2.184368	0.267204	
0.449519	0.862387	0.659819	0.607916	0.420191	2.177930	0.265678	
0.452392	0.860252	0.663188	0.607333	0.418156	2.172716	0.265406	
0.453858	0.860089	0.663610	0.607150	0.417768	2.170963	0.265451	
0.456731	0.854113	0.671594	0.606328	0.413709	2.163897	0.264319	
0.460938	0.832060	0.699955	0.604375	0.400547	2.145537	0.259712	
0.465144	0.804932	0.735317	0.602472	0.384863	2.124747	0.253851	
0.468017	0.796445	0.746343	0.601950	0.380129	2.119175	0.251948	
0.469483	0.795844	0.747416	0.601820	0.379529	2.117234	0.251887	
0.472356	0.790401	0.753876	0.601610	0.377006	2.116407	0.250528	
0.476563	0.781447	0.764603	0.601275	0.372851	2.114530	0.248308	
0.480769	0.778050	0.769492	0.600929	0.370580	2.110349	0.247628	
0.483642	0.772529	0.776397	0.600705	0.367868	2.108485	0.246284	
0.485108	0.761088	0.790130	0.600532	0.362957	2.108651	0.243293	
0.487981	0.738754	0.817602	0.600255	0.353336	2.108742	0.237417	
0.492188	0.717390	0.844375	0.600008	0.344269	2.110117	0.231677	
0.496394	0.711195	0.851114	0.599909	0.342316	2.114566	0.229819	
0.499267	0.705483	0.857785	0.599820	0.340274	2.117132	0.228173	
0.500733	0.702678	0.861028	0.599782	0.339310	2.118866	0.227342	
0.503606	0.696948	0.867599	0.599691	0.337385	2.122256	0.225651	
0.507813	0.690665	0.875068	0.599591	0.335154	2.125625	0.223808	
0.512019	0.669086	0.899555	0.599338	0.328627	2.144784	0.217132	
0.514892	0.646436	0.926168	0.599056	0.321804	2.166658	0.210032	
0.516358	0.634801	0.940239	0.598880	0.318283	2.178713	0.206347	
0.519231	0.628868	0.946502	0.598648	0.316957	2.188102	0.204338	
0.523438	0.624811	0.949422	0.598288	0.316685	2.198811	0.202797	
0.527644	0.615186	0.960279	0.597935	0.314292	2.213233	0.199580	
0.530517	0.609232	0.967032	0.597712	0.312850	2.222701	0.197571	
0.531983	0.608359	0.967265	0.597574	0.312983	2.226289	0.197193	
0.534856	0.599287	0.976677	0.597033	0.311204	2.243878	0.194021	
0.539063	0.571106	1.006612	0.595087	0.305746	2.303198	0.184067	
0.543269	0.547841	1.031503	0.593082	0.301631	2.359826	0.175684	
0.546142	0.541050	1.037898	0.592220	0.300802	2.380298	0.173132	
0.547608	0.540479	1.037883	0.592017	0.300915	2.383365	0.172875	
0.550481	0.537515	1.039550	0.591394	0.300957	2.395478	0.171666	
0.554688	0.528816	1.048708	0.590461	0.299668	2.421036	0.168449	
0.558894	0.517914	1.058994	0.588845	0.298433	2.457667	0.164310	
0.561767	0.506642	1.068323	0.586665	0.297547	2.500087	0.159945	
0.563233	0.498411	1.075531	0.585067	0.296795	2.531698	0.156773	
0.566106	0.478614	1.094387	0.581305	0.294691	2.609160	0.149221	
0.570313	0.462066	1.108964	0.577528	0.293404	2.683459	0.142801	
0.574519	0.457377	1.111055	0.575890	0.293587	2.710467	0.140868	
0.577392	0.454631	1.112684	0.575045	0.293614	2.725979	0.139750	
0.578858	0.451362	1.115700	0.574295	0.293370	2.742036	0.138481	
0.581731	0.444903	1.121378	0.572718	0.292987	2.775214	0.135959	
0.585938	0.431920	1.130088	0.568411	0.292609	2.848512	0.130823	
0.590144	0.411489	1.142835	0.560803	0.292086	2.974540	0.122758	
0.593017	0.396653	1.152515	0.555108	0.291673	3.074831	0.116927	
0.594483	0.390605	1.156527	0.552740	0.291513	3.117298	0.114571	
0.597356	0.385026	1.158953	0.550140	0.291561	3.159953	0.112365	
0.601563	0.382279	1.158742	0.548501	0.291862	3.184479	0.111233	
0.605769	0.376255	1.162035	0.545951	0.291918	3.233802	0.108846	
0.608642	0.369013	1.165819	0.542648	0.291879	3.293033	0.106022	
0.610108	0.364862	1.167098	0.540412	0.291920	3.328231	0.104405	
0.612981	0.355287	1.168592	0.534661	0.292070	3.415039	0.100659	
0.617188	0.336884	1.171378	0.523330	0.292207	3.593486	0.093560	
0.621394	0.323593	1.172741	0.514850	0.292327	3.734601	0.088500	
0.624267	0.320182	1.172123	0.512388	0.292444	3.773556	0.087201	
0.625733	0.319929	1.171465	0.512039	0.292515	3.777355	0.087095	
0.628606	0.318429	1.170931	0.510932	0.292636	3.796611	0.086506	
0.632813	0.312011	1.171078	0.506744	0.292794	3.871986	0.084090	
0.637019	0.301461	1.167508	0.498318	0.292861	4.002992	0.080147	
0.639892	0.292566	1.161821	0.490273	0.292816	4.119182	0.076870	
0.641358	0.287769	1.158167	0.485760	0.292760	4.184417	0.075117	
0.644231	0.278115	1.151090	0.476868	0.292615	4.321235	0.071628	
0.648438	0.270489	1.144460	0.469619	0.292477	4.436666	0.068894	
0.652644	0.268800	1.142101	0.467808	0.292497	4.463380	0.068290	
0.655517	0.267608	1.140696	0.466638	0.292534	4.482046	0.067867	
0.656983	0.265852	1.139080	0.464986	0.292514	4.511619	0.067233	
0.659856	0.261075	1.133893	0.460202	0.292368	4.587896	0.065556	
0.664063	0.251732	1.118420	0.449044	0.291603	4.739933	0.062339	
0.668269	0.241167	1.096708	0.435370	0.290336	4.920353	0.058774	
0.671142	0.234991	1.082925	0.427280	0.289490	5.031480	0.056720	
0.672608	0.232714	1.077879	0.424372	0.289186	5.074237	0.055965	
0.675481	0.230777	1.073031	0.421739	0.288881	5.110033	0.055330	
0.679688	0.230226	1.071330	0.420941	0.288820	5.120544	0.055149	
0.683894	0.227225	1.063652	0.416894	0.288358	5.177933	0.054167	
0.686767	0.222975	1.051402	0.410704	0.287460	5.256705	0.052808	
0.688233	0.220398	1.042957	0.406648	0.286778	5.304698	0.051992	
0.691106	0.215148	1.023322	0.397717	0.285067	5.397519	0.050376	
0.695313	0.207484	0.991833	0.384254	0.282200	5.536637	0.048050	
0.699519	0.202877	0.971864	0.376162	0.280351	5.621310	0.046675	
0.702392	0.201998	0.967917	0.374598	0.279976	5.636647	0.046418	
0.703858	0.202036	0.967890	0.374597	0.279962	5.638750	0.046418	
0.706731	0.201734	0.966268	0.373981	0.279804	5.640897	0.046343	
0.710938	0.198649	0.951416	0.368264	0.278356	5.697700	0.045437	
0.715144	0.193259	0.921415	0.357145	0.275107	5.786893	0.043911	
0.718017	0.189197	0.895834	0.348071	0.272154	5.845116	0.042808	
0.719483	0.187312	0.883092	0.343672	0.270634	5.869296	0.042310	
0.722356	0.183935	0.859958	0.335895	0.267883	5.913468	0.041419	
0.726563	0.181596	0.843486	0.330487	0.265887	5.945740	0.040800	
0.730769	0.181314	0.841118	0.329675	0.265537	5.945404	0.040739	
0.733642	0.180908	0.837748	0.328558	0.265076	5.946050	0.040649	
0.735108	0.180202	0.832342	0.326811	0.264390	5.954309	0.040467	
0.737981	0.177977	0.815025	0.321299	0.262187	5.976869	0.039908	
0.742188	0.173683	0.777720	0.309651	0.257125	6.005694	0.038881	
0.746394	0.169583	0.738346	0.297759	0.251535	6.014946	0.037960	
0.749267	0.167539	0.717628	0.291669	0.248529	6.012565	0.037522	
0.750733	0.166837	0.710543	0.289621	0.247505	6.016906	0.037356	
0.753606	0.166251	0.704368	0.287802	0.246560	6.014602	0.037235	
0.757813	0.166133	0.702471	0.287152	0.246161	6.006048	0.037235	
0.762019	0.164871	0.688386	0.283045	0.243981	5.999849	0.036978	
0.764892	0.163014	0.667452	0.277081	0.240770	5.985349	0.036616	
0.766358	0.161865	0.654008	0.273289	0.238672	5.976986	0.036389	
0.769231	0.159627	0.626240	0.265499	0.234198	5.943804	0.035996	
0.773438	0.156806	0.589002	0.255232	0.228033	5.891780	0.035528	
0.777644	0.155231	0.567355	0.249358	0.224374	5.855448	0.035286	
0.780517	0.154888	0.562382	0.247971	0.223478	5.844978	0.035241	
0.781983	0.154843	0.561510	0.247692	0.223282	5.841579	0.035241	
0.784856	0.154668	0.558415	0.246763	0.222648	5.833517	0.035226	
0.789063	0.153342	0.538936	0.241502	0.219233	5.789763	0.035060	
0.793269	0.151038	0.503915	0.232206	0.213029	5.712619	0.034773	
0.796142	0.149364	0.477002	0.225127	0.208135	5.641829	0.034607	
0.797608	0.148633	0.464702	0.221891	0.205843	5.606761	0.034546	
0.800481	0.147407	0.443708	0.216414	0.201903	5.549455	0.034440	
0.804688	0.146464	0.427180	0.212118	0.198754	5.493484	0.034395	
0.808894	0.146166	0.421446	0.210548	0.197567	5.476099	0.034380	
0.811767	0.145894	0.416128	0.209101	0.196469	5.455724	0.034380	
0.813233	0.145598	0.410603	0.207651	0.195378	5.433594	0.034380	
0.816106	0.144676	0.393711	0.203321	0.192108	5.379523	0.034335	
0.820313	0.142896	0.359873	0.194696	0.185443	5.257460	0.034305	
0.824519	0.141275	0.327330	0.186420	0.178851	5.124986	0.034350	
0.827392	0.140490	0.310900	0.182240	0.175451	5.059019	0.034380	
0.828858	0.140207	0.304947	0.180735	0.174215	5.034141	0.034395	
0.831731	0.139864	0.297675	0.178892	0.172695	5.000567	0.034425	
0.835938	0.139630	0.292351	0.177488	0.171521	4.974891	0.034456	
0.840144	0.139084	0.280230	0.174385	0.168924	4.918321	0.034516	
0.843017	0.138384	0.264820	0.170512	0.165659	4.847192	0.034592	
0.844483	0.137946	0.255073	0.168078	0.163590	4.803595	0.034637	
0.847356	0.137081	0.235370	0.163143	0.159346	4.709784	0.034758	
0.851563	0.136035	0.210575	0.156895	0.153879	4.580843	0.034969	
0.855769	0.135411	0.195414	0.153078	0.150493	4.502997	0.035105	
0.858642	0.135208	0.190437	0.151830	0.149378	4.473679	0.035166	
0.860108	0.135142	0.188816	0.151424	0.149015	4.465368	0.035181	
0.862981	0.135029	0.185879	0.150664	0.148331	4.450023	0.035211	
0.867188	0.134599	0.175048	0.147926	0.145864	4.390784	0.035332	
0.871394	0.133856	0.156192	0.143187	0.141555	4.285895	0.035558	
0.874267	0.133301	0.141774	0.139556	0.138217	4.202644	0.035755	
0.875733	0.133056	0.135259	0.137901	0.136684	4.161910	0.035860	
0.878606	0.132663	0.124604	0.135176	0.134146	4.098284	0.036026	
0.882813	0.132329	0.115497	0.132860	0.131977	4.042787	0.036178	
0.887019	0.132195	0.111889	0.131957	0.131129	4.020839	0.036238	
0.889892	0.132121	0.109831	0.131434	0.130637	4.006023	0.036283	
0.891358	0.132056	0.108002	0.130962	0.130191	3.995270	0.036313	
0.894231	0.131845	0.102103	0.129449	0.128762	3.958818	0.036419	
0.898438	0.131384	0.089068	0.126100	0.125579	3.874829	0.036676	
0.902644	0.130939	0.076179	0.122751	0.122371	3.787524	0.036963	
0.905517	0.130722	0.069720	0.121050	0.120733	3.743493	0.037114	
0.906983	0.130647	0.067449	0.120450	0.120153	3.729813	0.037159	
0.909856	0.130547	0.064486	0.119680	0.119408	3.708603	0.037235	
0.914063	0.130493	0.062958	0.119302	0.119043	3.699389	0.037265	
0.918269	0.130419	0.060735	0.118724	0.118483	3.682908	0.037325	
0.921142	0.130304	0.057207	0.117787	0.117574	3.658116	0.037416	
0.922608	0.130220	0.054636	0.117103	0.116909	3.641308	0.037477	
0.925481	0.130032	0.048866	0.115566	0.115410	3.597971	0.037643	
0.929688	0.129788	0.041166	0.113480	0.113370	3.543450	0.037854	
0.933894	0.129639	0.036350	0.112162	0.112077	3.506501	0.038005	
0.936767	0.129593	0.034853	0.111760	0.111681	3.495433	0.038050	
0.938233	0.129580	0.034462	0.111664	0.111587	3.491897	0.038066	
0.941106	0.129571	0.034188	0.111610	0.111534	3.491401	0.038066	
0.945313	0.129538	0.033086	0.111327	0.111256	3.483935	0.038096	
0.949519	0.129436	0.029665	0.110392	0.110335	3.455858	0.038217	
0.952392	0.129335	0.026290	0.109460	0.109415	3.430951	0.038322	
0.953858	0.129284	0.024552	0.108978	0.108939	3.417148	0.038383	
0.956731	0.129200	0.021608	0.108152	0.108122	3.393427	0.038489	
0.960938	0.129125	0.018902	0.107398	0.107375	3.373149	0.038579	
0.965144	0.129100	0.017925	0.107158	0.107137	3.366435	0.038609	
0.968017	0.129099	0.017804	0.107157	0.107137	3.366366	0.038609	
0.969483	0.129098	0.017729	0.107153	0.107132	3.366323	0.038609	
0.972356	0.129089	0.017318	0.107060	0.107040	3.363168	0.038624	
0.976563	0.129038	0.015379	0.106524	0.106509	3.347042	0.038700	
0.980769	0.128963	0.012604	0.105722	0.105712	3.324424	0.038806	
0.983642	0.128916	0.010888	0.105209	0.105202	3.311382	0.038866	
0.985108	0.128898	0.010246	0.105010	0.105003	3.305180	0.038896	
0.987981	0.128873	0.009375	0.104726	0.104720	3.295969	0.038942	
0.992188	0.128855	0.009003	0.104563	0.104558	3.292437	0.038957	
0.996394	0.128847	0.009187	0.104533	0.104527	3.292009	0.038957	
0.999267	0.128836	0.009245	0.104462	0.104456	3.288833	0.038972	
