TITLE = "DG1DMBX32-P4RK3w1000iv20"
VARIABLES = "x" "Density" "Velocity in x" "Energy" "Pressure" "Temperature" "Fugacity"
ZONE T = "Final Time 0.10"
I = 160, J = 1, K = 1, F = POINT

0.001466	0.999368	-0.000000	0.986297	0.986297	3.947684	0.283778	
0.007211	0.999368	-0.000000	0.986297	0.986297	3.947684	0.283778	
0.015625	0.999368	-0.000000	0.986297	0.986297	3.947684	0.283778	
0.024039	0.999368	-0.000000	0.986297	0.986297	3.947684	0.283778	
0.029784	0.999368	-0.000000	0.986297	0.986297	3.947684	0.283778	
0.032716	0.999368	-0.000000	0.986297	0.986297	3.947684	0.283778	
0.038461	0.999368	-0.000000	0.986297	0.986297	3.947684	0.283778	
0.046875	0.999368	-0.000000	0.986297	0.986297	3.947684	0.283778	
0.055289	0.999368	0.000000	0.986297	0.986297	3.947684	0.283778	
0.061034	0.999368	0.000000	0.986297	0.986297	3.947684	0.283778	
0.063966	0.999368	-0.000000	0.986297	0.986297	3.947684	0.283778	
0.069711	0.999368	0.000000	0.986297	0.986297	3.947684	0.283778	
0.078125	0.999368	0.000000	0.986297	0.986297	3.947684	0.283778	
0.086539	0.999368	-0.000000	0.986297	0.986297	3.947684	0.283778	
0.092284	0.999368	0.000000	0.986297	0.986297	3.947684	0.283778	
0.095216	0.999368	0.000000	0.986297	0.986297	3.947684	0.283778	
0.100961	0.999368	-0.000000	0.986297	0.986297	3.947684	0.283778	
0.109375	0.999368	0.000000	0.986297	0.986297	3.947684	0.283778	
0.117789	0.999368	-0.000000	0.986297	0.986297	3.947684	0.283778	
0.123534	0.999368	-0.000000	0.986297	0.986297	3.947684	0.283778	
0.126466	0.999368	0.000000	0.986297	0.986297	3.947684	0.283778	
0.132211	0.999368	0.000000	0.986297	0.986297	3.947684	0.283778	
0.140625	0.999368	-0.000000	0.986297	0.986297	3.947684	0.283778	
0.149039	0.999368	0.000000	0.986297	0.986297	3.947684	0.283778	
0.154784	0.999368	0.000000	0.986297	0.986297	3.947684	0.283778	
0.157716	0.999368	-0.000000	0.986297	0.986297	3.947684	0.283778	
0.163461	0.999368	0.000000	0.986297	0.986297	3.947684	0.283778	
0.171875	0.999368	0.000000	0.986297	0.986297	3.947684	0.283778	
0.180289	0.999368	-0.000000	0.986297	0.986297	3.947684	0.283778	
0.186034	0.999368	0.000000	0.986297	0.986297	3.947684	0.283778	
0.188966	0.999368	0.000000	0.986297	0.986297	3.947684	0.283778	
0.194711	0.999368	-0.000000	0.986297	0.986297	3.947684	0.283778	
0.203125	0.999368	-0.000000	0.986297	0.986297	3.947684	0.283778	
0.211539	0.999368	0.000000	0.986297	0.986297	3.947684	0.283778	
0.217284	0.999368	-0.000000	0.986297	0.986297	3.947684	0.283778	
0.220216	0.999368	-0.000000	0.986297	0.986297	3.947684	0.283778	
0.225961	0.999368	0.000000	0.986297	0.986297	3.947684	0.283778	
0.234375	0.999368	-0.000000	0.986297	0.986297	3.947684	0.283778	
0.242789	0.999368	-0.000000	0.986297	0.986297	3.947684	0.283778	
0.248534	0.999368	0.000000	0.986297	0.986297	3.947684	0.283778	
0.251466	0.999368	0.000000	0.986297	0.986297	3.947684	0.283778	
0.257211	0.999368	-0.000000	0.986297	0.986297	3.947684	0.283778	
0.265625	0.999368	0.000000	0.986297	0.986297	3.947684	0.283778	
0.274039	0.999368	0.000000	0.986297	0.986297	3.947684	0.283778	
0.279784	0.999368	-0.000001	0.986298	0.986298	3.947686	0.283778	
0.282716	0.999368	-0.000000	0.986297	0.986297	3.947684	0.283778	
0.288461	0.999368	0.000001	0.986296	0.986296	3.947681	0.283778	
0.296875	0.999368	-0.000000	0.986298	0.986298	3.947686	0.283778	
0.305289	0.999368	-0.000001	0.986298	0.986298	3.947686	0.283778	
0.311034	0.999367	0.000004	0.986292	0.986292	3.947668	0.283779	
0.313966	0.999366	0.000004	0.986293	0.986293	3.947675	0.283778	
0.319711	0.999369	-0.000004	0.986303	0.986303	3.947702	0.283778	
0.328125	0.999369	-0.000000	0.986297	0.986297	3.947679	0.283779	
0.336539	0.999363	0.000013	0.986281	0.986281	3.947639	0.283778	
0.342284	0.999371	-0.000013	0.986319	0.986319	3.947760	0.283776	
0.345216	0.999384	-0.000041	0.986349	0.986349	3.947831	0.283778	
0.350961	0.999368	0.000008	0.986280	0.986280	3.947618	0.283781	
0.359375	0.999347	0.000048	0.986238	0.986238	3.947527	0.283778	
0.367789	0.999405	-0.000109	0.986459	0.986459	3.948184	0.283771	
0.373534	0.999446	-0.000175	0.986493	0.986493	3.948162	0.283783	
0.376466	0.999379	0.000011	0.986204	0.986204	3.947270	0.283796	
0.382211	0.999223	0.000391	0.985786	0.985786	3.946210	0.283790	
0.390625	0.998986	0.001065	0.984819	0.984818	3.943273	0.283828	
0.399039	0.996865	0.006934	0.976729	0.976705	3.919106	0.284098	
0.404784	0.992038	0.019915	0.959917	0.959721	3.869693	0.284522	
0.407716	0.987803	0.030785	0.946424	0.945956	3.830544	0.284751	
0.413461	0.975936	0.061067	0.910848	0.909028	3.725768	0.285259	
0.421875	0.950086	0.125188	0.843064	0.835619	3.518077	0.285782	
0.430289	0.916096	0.208385	0.767696	0.747806	3.265188	0.286030	
0.436034	0.889648	0.272496	0.718026	0.684996	3.079850	0.286008	
0.438966	0.875233	0.307209	0.693870	0.652569	2.982379	0.285935	
0.444711	0.845947	0.377961	0.650363	0.589939	2.789486	0.285763	
0.453125	0.800680	0.486684	0.596881	0.502056	2.508147	0.285238	
0.461539	0.754255	0.598092	0.556818	0.421914	2.237513	0.284486	
0.467284	0.723034	0.672555	0.537230	0.373706	2.067431	0.283706	
0.470216	0.707967	0.708471	0.529628	0.351953	1.988529	0.283251	
0.475961	0.681538	0.771278	0.518970	0.316257	1.856140	0.282234	
0.484375	0.653386	0.836275	0.511350	0.282875	1.731751	0.280125	
0.492789	0.639634	0.865087	0.509012	0.269669	1.686397	0.277892	
0.498534	0.633890	0.873194	0.508108	0.266448	1.681354	0.275810	
0.501466	0.630972	0.875266	0.507531	0.265840	1.685274	0.274221	
0.507211	0.626657	0.880128	0.506711	0.263999	1.685127	0.272357	
0.515625	0.593185	0.897307	0.500516	0.261712	1.764790	0.251923	
0.524039	0.482005	0.928681	0.468794	0.260942	2.165469	0.184799	
0.529784	0.377137	0.956497	0.433216	0.260697	2.765010	0.127961	
0.532716	0.328400	0.963221	0.413901	0.261557	3.185834	0.103805	
0.538461	0.257503	0.961481	0.381070	0.262047	4.070585	0.072008	
0.546875	0.205768	0.923117	0.347409	0.259737	5.049134	0.051665	
0.555289	0.186922	0.872735	0.325668	0.254482	5.445722	0.045192	
0.561034	0.181070	0.842031	0.314479	0.250288	5.529087	0.043446	
0.563966	0.178637	0.827700	0.308869	0.247678	5.545963	0.042796	
0.569711	0.174928	0.799920	0.299495	0.243529	5.568671	0.041822	
0.578125	0.170292	0.756850	0.285631	0.236857	5.563568	0.040733	
0.586539	0.166237	0.717094	0.272344	0.229602	5.524697	0.039902	
0.592284	0.163317	0.675154	0.261490	0.224267	5.492817	0.039315	
0.595216	0.161207	0.649730	0.253825	0.219798	5.453804	0.038946	
0.600961	0.152938	0.545251	0.221811	0.199076	5.206729	0.037814	
0.609375	0.133430	0.184772	0.136081	0.133803	4.011188	0.037587	
0.617789	0.123555	-0.031778	0.094875	0.094812	3.069470	0.039788	
0.623534	0.125449	0.011686	0.101554	0.101546	3.237827	0.039334	
0.626466	0.126761	0.031489	0.104530	0.104467	3.296503	0.039390	
0.632211	0.124650	-0.004685	0.099431	0.099429	3.190671	0.039371	
0.640625	0.124938	-0.002028	0.099460	0.099459	3.184282	0.039502	
0.649039	0.125151	0.003242	0.100365	0.100365	3.207795	0.039424	
0.654784	0.124815	-0.002563	0.099575	0.099574	3.191106	0.039420	
0.657716	0.124919	-0.002108	0.099494	0.099494	3.185882	0.039486	
0.663461	0.125045	0.000906	0.099992	0.099992	3.198603	0.039447	
0.671875	0.124984	-0.000113	0.099855	0.099855	3.195777	0.039445	
0.680289	0.124989	-0.000150	0.099839	0.099839	3.195123	0.039451	
0.686034	0.125013	0.000365	0.099917	0.099917	3.197014	0.039446	
0.688966	0.124992	0.000009	0.099875	0.099875	3.196198	0.039445	
0.694711	0.124990	-0.000088	0.099851	0.099851	3.195500	0.039448	
0.703125	0.124996	0.000030	0.099870	0.099870	3.195945	0.039448	
0.711539	0.124994	-0.000004	0.099865	0.099865	3.195857	0.039447	
0.717284	0.124993	-0.000029	0.099861	0.099861	3.195734	0.039448	
0.720216	0.124995	0.000014	0.099867	0.099867	3.195875	0.039448	
0.725961	0.124994	0.000005	0.099866	0.099866	3.195876	0.039448	
0.734375	0.124994	-0.000003	0.099865	0.099865	3.195836	0.039448	
0.742789	0.124994	0.000002	0.099866	0.099866	3.195854	0.039448	
0.748534	0.124994	0.000001	0.099866	0.099866	3.195857	0.039448	
0.751466	0.124994	-0.000002	0.099865	0.099865	3.195842	0.039448	
0.757211	0.124994	0.000000	0.099865	0.099865	3.195848	0.039448	
0.765625	0.124994	0.000000	0.099866	0.099866	3.195850	0.039448	
0.774039	0.124994	-0.000000	0.099865	0.099865	3.195848	0.039448	
0.779784	0.124994	0.000000	0.099865	0.099865	3.195849	0.039448	
0.782716	0.124994	0.000000	0.099866	0.099866	3.195850	0.039448	
0.788461	0.124994	-0.000000	0.099865	0.099865	3.195849	0.039448	
0.796875	0.124994	0.000000	0.099865	0.099865	3.195849	0.039448	
0.805289	0.124994	0.000000	0.099865	0.099865	3.195849	0.039448	
0.811034	0.124994	-0.000000	0.099865	0.099865	3.195849	0.039448	
0.813966	0.124994	0.000000	0.099865	0.099865	3.195849	0.039448	
0.819711	0.124994	0.000000	0.099865	0.099865	3.195849	0.039448	
0.828125	0.124994	-0.000000	0.099865	0.099865	3.195849	0.039448	
0.836539	0.124994	0.000000	0.099865	0.099865	3.195849	0.039448	
0.842284	0.124994	0.000000	0.099865	0.099865	3.195849	0.039448	
0.845216	0.124994	-0.000000	0.099865	0.099865	3.195849	0.039448	
0.850961	0.124994	-0.000000	0.099865	0.099865	3.195849	0.039448	
0.859375	0.124994	0.000000	0.099865	0.099865	3.195849	0.039448	
0.867789	0.124994	-0.000000	0.099865	0.099865	3.195849	0.039448	
0.873534	0.124994	0.000000	0.099865	0.099865	3.195849	0.039448	
0.876466	0.124994	0.000000	0.099865	0.099865	3.195849	0.039448	
0.882211	0.124994	-0.000000	0.099865	0.099865	3.195849	0.039448	
0.890625	0.124994	0.000000	0.099865	0.099865	3.195849	0.039448	
0.899039	0.124994	0.000000	0.099865	0.099865	3.195849	0.039448	
0.904784	0.124994	-0.000000	0.099865	0.099865	3.195849	0.039448	
0.907716	0.124994	0.000000	0.099865	0.099865	3.195849	0.039448	
0.913461	0.124994	0.000000	0.099865	0.099865	3.195849	0.039448	
0.921875	0.124994	-0.000000	0.099865	0.099865	3.195849	0.039448	
0.930289	0.124994	0.000000	0.099865	0.099865	3.195849	0.039448	
0.936034	0.124994	0.000000	0.099865	0.099865	3.195849	0.039448	
0.938966	0.124994	-0.000000	0.099865	0.099865	3.195849	0.039448	
0.944711	0.124994	0.000000	0.099865	0.099865	3.195849	0.039448	
0.953125	0.124994	0.000000	0.099865	0.099865	3.195849	0.039448	
0.961539	0.124994	-0.000000	0.099865	0.099865	3.195849	0.039448	
0.967284	0.124994	0.000000	0.099865	0.099865	3.195849	0.039448	
0.970216	0.124994	0.000000	0.099865	0.099865	3.195849	0.039448	
0.975961	0.124994	-0.000000	0.099865	0.099865	3.195849	0.039448	
0.984375	0.124994	0.000000	0.099865	0.099865	3.195849	0.039448	
0.992789	0.124994	0.000000	0.099865	0.099865	3.195849	0.039448	
0.998534	0.124994	0.000000	0.099865	0.099865	3.195849	0.039448	
