TITLE = "DG1DFDX32-P5RK4w100iv80"
VARIABLES = "x" "Density" "Velocity in x" "Energy" "Pressure" "Temperature" "Fugacity"
ZONE T = "Final Time 0.10"
I = 192, J = 1, K = 1, F = POINT

0.001055	0.837416	0.000004	0.913180	0.913180	4.000211	0.282051	
0.005294	0.837416	0.000004	0.913179	0.913179	4.000209	0.282051	
0.011897	0.837415	0.000006	0.913177	0.913177	4.000206	0.282051	
0.019353	0.837415	0.000009	0.913173	0.913173	4.000200	0.282051	
0.025956	0.837414	0.000012	0.913168	0.913168	4.000192	0.282051	
0.030195	0.837413	0.000015	0.913163	0.913163	4.000187	0.282051	
0.032305	0.837413	0.000017	0.913160	0.913160	4.000180	0.282051	
0.036544	0.837412	0.000022	0.913154	0.913154	4.000171	0.282051	
0.043147	0.837410	0.000031	0.913139	0.913139	4.000150	0.282051	
0.050603	0.837403	0.000060	0.913099	0.913099	3.999725	0.282067	
0.057206	0.837395	0.000095	0.913047	0.913047	3.999647	0.282067	
0.061445	0.837390	0.000113	0.913017	0.913017	3.999602	0.282067	
0.063555	0.837387	0.000126	0.912999	0.912999	3.999575	0.282067	
0.067794	0.837379	0.000159	0.912954	0.912954	3.999501	0.282067	
0.074397	0.837363	0.000224	0.912856	0.912856	3.998988	0.282082	
0.081853	0.837339	0.000326	0.912710	0.912710	3.998394	0.282097	
0.088456	0.837309	0.000452	0.912532	0.912532	3.997744	0.282112	
0.092695	0.837283	0.000555	0.912385	0.912385	3.997140	0.282127	
0.094805	0.837269	0.000615	0.912301	0.912301	3.997002	0.282127	
0.099044	0.837234	0.000754	0.912107	0.912106	3.996315	0.282142	
0.105647	0.837165	0.001031	0.911720	0.911720	3.994936	0.282172	
0.113103	0.837058	0.001459	0.911130	0.911129	3.992829	0.282218	
0.119706	0.836927	0.001973	0.910429	0.910427	3.990145	0.282278	
0.123945	0.836821	0.002388	0.909868	0.909866	3.988055	0.282323	
0.126055	0.836760	0.002623	0.909550	0.909548	3.987118	0.282338	
0.130294	0.836621	0.003163	0.908830	0.908826	3.984711	0.282384	
0.136897	0.836348	0.004207	0.907447	0.907440	3.979606	0.282489	
0.144353	0.835939	0.005752	0.905430	0.905417	3.972503	0.282625	
0.150956	0.835467	0.007519	0.903154	0.903131	3.964802	0.282761	
0.155195	0.835097	0.008889	0.901411	0.901378	3.958446	0.282882	
0.157305	0.834891	0.009647	0.900452	0.900413	3.955428	0.282927	
0.161544	0.834430	0.011336	0.898332	0.898278	3.947866	0.283063	
0.168147	0.833569	0.014458	0.894465	0.894378	3.934782	0.283275	
0.175603	0.832358	0.018797	0.889183	0.889036	3.916678	0.283562	
0.182206	0.831041	0.023456	0.883618	0.883389	3.897663	0.283849	
0.186445	0.830062	0.026889	0.879578	0.879278	3.883617	0.284060	
0.188555	0.829533	0.028734	0.877427	0.877084	3.876238	0.284166	
0.192794	0.828381	0.032728	0.872817	0.872373	3.860653	0.284378	
0.199397	0.826339	0.039746	0.864855	0.864202	3.833765	0.284725	
0.206853	0.823644	0.048899	0.854713	0.853729	3.799308	0.285148	
0.213456	0.820892	0.058139	0.844732	0.843345	3.765251	0.285541	
0.217695	0.818939	0.064646	0.837847	0.836136	3.741697	0.285797	
0.219805	0.817910	0.068055	0.834283	0.832389	3.729322	0.285933	
0.224044	0.815730	0.075248	0.826866	0.824556	3.703881	0.286190	
0.230647	0.812027	0.087371	0.814651	0.811552	3.661559	0.286598	
0.238103	0.807392	0.102398	0.799985	0.795752	3.610610	0.287036	
0.244706	0.802888	0.116869	0.786333	0.780850	3.562568	0.287414	
0.248945	0.799800	0.126722	0.777287	0.770865	3.530238	0.287655	
0.251055	0.798206	0.131790	0.772711	0.765779	3.514010	0.287761	
0.255294	0.794891	0.142289	0.763393	0.755346	3.480285	0.287988	
0.261897	0.789433	0.159471	0.748601	0.738563	3.426317	0.288305	
0.269353	0.782851	0.180035	0.731615	0.718927	3.362919	0.288637	
0.275956	0.776668	0.199217	0.716444	0.701032	3.305075	0.288894	
0.280195	0.772530	0.211991	0.706691	0.689332	3.267084	0.289045	
0.282305	0.770422	0.218479	0.701841	0.683454	3.248140	0.289105	
0.286544	0.766095	0.231757	0.692131	0.671557	3.209511	0.289226	
0.293147	0.759118	0.253071	0.677134	0.652826	3.148561	0.289377	
0.300603	0.750915	0.277994	0.660482	0.631466	3.078725	0.289498	
0.307206	0.743381	0.300757	0.646078	0.612457	3.016197	0.289558	
0.311445	0.738421	0.315682	0.637038	0.600244	2.975822	0.289574	
0.313555	0.735918	0.323198	0.632605	0.594169	2.955684	0.289574	
0.317794	0.730828	0.338452	0.623848	0.581990	2.915447	0.289543	
0.324397	0.722739	0.362602	0.610624	0.563111	2.852516	0.289468	
0.331853	0.713394	0.390375	0.596356	0.541998	2.781663	0.289317	
0.338456	0.704960	0.415330	0.584363	0.523560	2.719130	0.289136	
0.342695	0.699480	0.431487	0.577001	0.511886	2.679603	0.288969	
0.344805	0.696735	0.439565	0.573437	0.506127	2.660013	0.288879	
0.349044	0.691193	0.455842	0.566487	0.494675	2.620624	0.288697	
0.355647	0.682495	0.481300	0.556221	0.477171	2.560476	0.288335	
0.363103	0.672611	0.510099	0.545469	0.457962	2.493855	0.287852	
0.369706	0.663841	0.535527	0.536709	0.441517	2.436320	0.287353	
0.373945	0.658219	0.551761	0.531463	0.431269	2.400316	0.286991	
0.376055	0.655426	0.559808	0.528961	0.426260	2.382722	0.286794	
0.380294	0.649832	0.575882	0.524154	0.416399	2.347828	0.286386	
0.386897	0.641181	0.600619	0.517245	0.401594	2.295277	0.285677	
0.394353	0.631551	0.627957	0.510276	0.385757	2.238970	0.284755	
0.400956	0.623195	0.651482	0.504822	0.372571	2.192023	0.283834	
0.405195	0.617933	0.666184	0.501661	0.364542	2.163485	0.283184	
0.407305	0.615347	0.673374	0.500185	0.360676	2.149655	0.282852	
0.411544	0.610226	0.687529	0.497407	0.353181	2.122986	0.282142	
0.418147	0.602468	0.708742	0.493561	0.342247	2.084543	0.280919	
0.425603	0.594063	0.731332	0.489880	0.331014	2.045468	0.279393	
0.432206	0.586960	0.750015	0.487156	0.322067	2.014996	0.277898	
0.436445	0.582572	0.761317	0.485648	0.316817	1.997792	0.276840	
0.438555	0.580438	0.766737	0.484962	0.314347	1.989776	0.276297	
0.442794	0.576254	0.777194	0.483708	0.309671	1.975030	0.275149	
0.449397	0.569993	0.792355	0.482053	0.303124	1.955518	0.273215	
0.456853	0.563253	0.807869	0.480560	0.296755	1.938469	0.270798	
0.463456	0.557509	0.820270	0.479513	0.291955	1.928015	0.268397	
0.467695	0.553894	0.827621	0.478954	0.289257	1.923617	0.266705	
0.469805	0.552106	0.831119	0.478704	0.288018	1.922105	0.265814	
0.474044	0.548520	0.837842	0.478247	0.285722	1.920145	0.263941	
0.480647	0.542875	0.847625	0.477637	0.282618	1.920666	0.260709	
0.488103	0.536254	0.857885	0.477045	0.279713	1.926695	0.256509	
0.494706	0.530001	0.866493	0.476557	0.277591	1.936844	0.252235	
0.498945	0.525714	0.871883	0.476238	0.276419	1.946157	0.249153	
0.501055	0.523481	0.874548	0.476072	0.275884	1.951508	0.247522	
0.505294	0.518769	0.879896	0.475718	0.274898	1.964021	0.244018	
0.511897	0.510724	0.888314	0.475079	0.273572	1.988813	0.237885	
0.519353	0.500417	0.898120	0.474164	0.272341	2.025223	0.229910	
0.525956	0.490038	0.907203	0.473107	0.271452	2.066019	0.221859	
0.530195	0.482692	0.913277	0.472272	0.270971	2.096927	0.216195	
0.532305	0.478824	0.916379	0.471803	0.270756	2.114013	0.213219	
0.536544	0.470627	0.922764	0.470741	0.270373	2.151794	0.206951	
0.543147	0.456702	0.933108	0.468724	0.269901	2.220104	0.196483	
0.550603	0.439335	0.945281	0.465834	0.269549	2.313338	0.183750	
0.557206	0.422629	0.956342	0.462664	0.269398	2.412040	0.171863	
0.561445	0.411339	0.963484	0.460302	0.269379	2.483725	0.164054	
0.563555	0.405577	0.967026	0.459028	0.269392	2.522308	0.160126	
0.567794	0.393773	0.974060	0.456269	0.269464	2.604757	0.152242	
0.574397	0.374942	0.984635	0.451445	0.269691	2.747945	0.140067	
0.581853	0.353414	0.995628	0.445267	0.270102	2.931415	0.126760	
0.588456	0.334514	1.004115	0.439217	0.270581	3.113409	0.115598	
0.592695	0.322630	1.008767	0.435089	0.270933	3.239258	0.108831	
0.594805	0.316817	1.010818	0.432973	0.271119	3.303980	0.105599	
0.599044	0.305402	1.014356	0.428623	0.271506	3.439945	0.099360	
0.605647	0.288434	1.018183	0.421642	0.272133	3.661231	0.090434	
0.613103	0.270677	1.019840	0.413595	0.272833	3.921750	0.081522	
0.619706	0.256346	1.018865	0.406462	0.273408	4.158691	0.074634	
0.623945	0.247872	1.017041	0.401937	0.273741	4.313225	0.070677	
0.626055	0.243866	1.015796	0.399709	0.273893	4.388864	0.068849	
0.630294	0.236248	1.012647	0.395297	0.274166	4.539248	0.065435	
0.636897	0.225496	1.006153	0.388640	0.274501	4.769874	0.060738	
0.644353	0.214918	0.996817	0.381503	0.274727	5.016010	0.056282	
0.650956	0.206842	0.987159	0.375569	0.274786	5.218319	0.052989	
0.655195	0.202247	0.980450	0.371963	0.274755	5.338658	0.051161	
0.657305	0.200119	0.976998	0.370228	0.274719	5.397941	0.050315	
0.661544	0.196147	0.969889	0.366863	0.274607	5.507088	0.048775	
0.668147	0.190703	0.958505	0.361939	0.274336	5.661256	0.046705	
0.675603	0.185523	0.945508	0.356825	0.273898	5.815353	0.044772	
0.682206	0.181673	0.934116	0.352663	0.273401	5.928269	0.043382	
0.686445	0.179517	0.926925	0.350153	0.273033	5.993276	0.042612	
0.688555	0.178526	0.923389	0.348945	0.272835	6.026434	0.042250	
0.692794	0.176685	0.916391	0.346597	0.272410	6.078919	0.041615	
0.699397	0.174178	0.905774	0.343129	0.271679	6.152607	0.040754	
0.706853	0.171786	0.894176	0.339426	0.270750	6.215706	0.039969	
0.713456	0.169983	0.884167	0.336272	0.269830	6.264313	0.039380	
0.717695	0.168952	0.877816	0.334279	0.269186	6.286731	0.039063	
0.719805	0.168470	0.874664	0.333291	0.268848	6.298225	0.038911	
0.724044	0.167556	0.868323	0.331301	0.268133	6.315730	0.038640	
0.730647	0.166253	0.858337	0.328154	0.266911	6.337974	0.038262	
0.738103	0.164910	0.846667	0.324447	0.265340	6.352653	0.037899	
0.744706	0.163789	0.835724	0.320946	0.263748	6.360082	0.037612	
0.748945	0.163086	0.828276	0.318549	0.262607	6.360268	0.037446	
0.751055	0.162738	0.824416	0.317303	0.262000	6.358098	0.037371	
0.755294	0.162036	0.816303	0.314677	0.260691	6.353318	0.037220	
0.761897	0.160917	0.802522	0.310205	0.258386	6.340927	0.036993	
0.769353	0.159581	0.784842	0.304465	0.255316	6.316284	0.036751	
0.775956	0.158298	0.766812	0.298628	0.252088	6.290532	0.036525	
0.780195	0.157409	0.753806	0.294438	0.249717	6.265455	0.036389	
0.782305	0.156944	0.746854	0.292207	0.248436	6.253744	0.036313	
0.786544	0.155958	0.731822	0.287407	0.245645	6.220764	0.036178	
0.793147	0.154266	0.705161	0.278982	0.240628	6.161596	0.035951	
0.800603	0.152089	0.669408	0.267877	0.233801	6.073258	0.035694	
0.807206	0.149889	0.631754	0.256436	0.226525	5.972547	0.035468	
0.811445	0.148329	0.604161	0.248223	0.221152	5.892893	0.035332	
0.813555	0.147508	0.589342	0.243869	0.218253	5.847338	0.035271	
0.817794	0.145768	0.557268	0.234586	0.211952	5.743747	0.035166	
0.824397	0.142831	0.501008	0.218754	0.200828	5.556483	0.035030	
0.831853	0.139246	0.428630	0.199197	0.186405	5.289914	0.034999	
0.838456	0.135972	0.358791	0.181133	0.172381	5.010321	0.035120	
0.842695	0.133913	0.312891	0.169672	0.163117	4.811140	0.035301	
0.844805	0.132924	0.290247	0.164134	0.158535	4.712699	0.035407	
0.849044	0.131043	0.246153	0.153556	0.149585	4.508703	0.035694	
0.855647	0.128493	0.184096	0.139105	0.136927	4.208978	0.036238	
0.863103	0.126275	0.127697	0.126382	0.125352	3.920235	0.036918	
0.869706	0.124867	0.090641	0.118217	0.117704	3.722698	0.037477	
0.873945	0.124193	0.072493	0.114268	0.113941	3.622580	0.037794	
0.876055	0.123911	0.064843	0.112612	0.112352	3.578266	0.037945	
0.880294	0.123439	0.051890	0.109818	0.109652	3.507375	0.038186	
0.886897	0.122897	0.036846	0.106585	0.106502	3.421117	0.038504	
0.894353	0.122486	0.025265	0.104103	0.104064	3.352034	0.038776	
0.900956	0.122241	0.018259	0.102601	0.102580	3.310931	0.038942	
0.905195	0.122124	0.014896	0.101878	0.101864	3.292161	0.039017	
0.907305	0.122075	0.013476	0.101572	0.101561	3.282093	0.039063	
0.911544	0.121991	0.011048	0.101049	0.101041	3.267750	0.039123	
0.918147	0.121892	0.008156	0.100423	0.100419	3.250230	0.039198	
0.925603	0.121814	0.005835	0.099919	0.099917	3.236322	0.039259	
0.932206	0.121764	0.004364	0.099597	0.099596	3.226440	0.039304	
0.936445	0.121740	0.003632	0.099437	0.099436	3.222731	0.039319	
0.938555	0.121729	0.003315	0.099367	0.099367	3.222183	0.039319	
0.942794	0.121711	0.002764	0.099245	0.099245	3.216400	0.039349	
0.949397	0.121689	0.002086	0.099096	0.099096	3.212821	0.039365	
0.956853	0.121670	0.001517	0.098970	0.098970	3.209445	0.039380	
0.963456	0.121658	0.001147	0.098885	0.098885	3.206401	0.039395	
0.967695	0.121652	0.000955	0.098844	0.098844	3.206077	0.039395	
0.969805	0.121650	0.000881	0.098826	0.098826	3.205965	0.039395	
0.974044	0.121644	0.000710	0.098787	0.098787	3.203280	0.039410	
0.980647	0.121638	0.000550	0.098747	0.098747	3.202973	0.039410	
0.988103	0.121633	0.000408	0.098712	0.098712	3.202722	0.039410	
0.994706	0.121627	0.000280	0.098672	0.098672	3.200017	0.039425	
0.998945	0.121622	0.000268	0.098645	0.098645	3.199741	0.039425	
