TITLE = "DG1DBEX32-P3RK4w10iv80"
VARIABLES = "x" "Density" "Velocity in x" "Energy" "Pressure" "Temperature" "Fugacity"
ZONE T = "Final Time 0.10"
I = 128, J = 1, K = 1, F = POINT

0.002170	1.260354	0.000655	1.116548	1.116548	3.993279	0.282263	
0.010313	1.260315	0.000800	1.116117	1.116117	3.991942	0.282293	
0.020937	1.260248	0.001040	1.115430	1.115429	3.989890	0.282338	
0.029080	1.260178	0.001279	1.114771	1.114770	3.987820	0.282384	
0.033420	1.260137	0.001424	1.114371	1.114370	3.986473	0.282414	
0.041563	1.260050	0.001727	1.113539	1.113537	3.983755	0.282474	
0.052187	1.259901	0.002225	1.112217	1.112214	3.980111	0.282550	
0.060330	1.259752	0.002710	1.110970	1.110966	3.975922	0.282641	
0.064670	1.259666	0.002995	1.110232	1.110226	3.973760	0.282686	
0.072813	1.259480	0.003601	1.108687	1.108679	3.969347	0.282776	
0.083437	1.259165	0.004586	1.106259	1.106245	3.961439	0.282943	
0.091580	1.258859	0.005520	1.104016	1.103997	3.954678	0.283079	
0.095920	1.258687	0.006059	1.102713	1.102690	3.950912	0.283154	
0.104063	1.258304	0.007215	1.099985	1.099952	3.942618	0.283320	
0.114687	1.257668	0.009066	1.095761	1.095709	3.930092	0.283562	
0.122830	1.257073	0.010769	1.091958	1.091886	3.918401	0.283788	
0.127170	1.256739	0.011741	1.089783	1.089696	3.912075	0.283909	
0.135313	1.255990	0.013833	1.085243	1.085122	3.898426	0.284166	
0.145937	1.254776	0.017114	1.078354	1.078170	3.877749	0.284544	
0.154080	1.253685	0.020040	1.072328	1.072076	3.860031	0.284861	
0.158420	1.253067	0.021703	1.068921	1.068626	3.849974	0.285042	
0.166563	1.251683	0.025266	1.061868	1.061469	3.829045	0.285405	
0.177187	1.249509	0.030718	1.051429	1.050840	3.798290	0.285918	
0.185330	1.247625	0.035431	1.042573	1.041790	3.772078	0.286356	
0.189670	1.246537	0.038116	1.037612	1.036707	3.757395	0.286598	
0.197813	1.244137	0.043809	1.027470	1.026276	3.727366	0.287066	
0.208437	1.240497	0.052277	1.012879	1.011184	3.684741	0.287701	
0.216580	1.237442	0.059386	1.000886	0.998704	3.649437	0.288229	
0.220920	1.235625	0.063474	0.994206	0.991717	3.629470	0.288516	
0.229063	1.231728	0.071991	0.980783	0.977591	3.590231	0.289030	
0.239687	1.226038	0.084288	0.962064	0.957709	3.534858	0.289740	
0.247830	1.221363	0.094365	0.947150	0.941712	3.490204	0.290314	
0.252170	1.218482	0.100254	0.938861	0.932738	3.465429	0.290586	
0.260313	1.212555	0.112218	0.922574	0.914939	3.416740	0.291084	
0.270937	1.204227	0.128973	0.900613	0.890598	3.350297	0.291749	
0.279080	1.197421	0.142500	0.883615	0.871458	3.297606	0.292262	
0.283420	1.193078	0.150573	0.874161	0.860636	3.268953	0.292428	
0.291563	1.184626	0.166414	0.856117	0.839714	3.212554	0.292791	
0.302187	1.173154	0.187957	0.832653	0.811930	3.137717	0.293259	
0.310330	1.163608	0.205345	0.814938	0.790406	3.079919	0.293516	
0.314670	1.157403	0.215914	0.805085	0.778107	3.047969	0.293486	
0.322813	1.146098	0.235749	0.786968	0.755119	2.987131	0.293546	
0.333437	1.131108	0.262063	0.764307	0.725466	2.907964	0.293606	
0.341580	1.118070	0.283735	0.747535	0.702530	2.848468	0.293320	
0.345920	1.109732	0.296935	0.738279	0.689356	2.815456	0.292942	
0.354063	1.095562	0.320436	0.722032	0.665786	2.753857	0.292534	
0.364687	1.076797	0.351201	0.702547	0.636140	2.676275	0.291854	
0.372830	1.059299	0.377710	0.688344	0.612782	2.618776	0.290601	
0.377170	1.049010	0.393231	0.680722	0.599618	2.586721	0.289785	
0.385313	1.032425	0.419477	0.668070	0.577237	2.528799	0.288743	
0.395937	1.009469	0.454325	0.653590	0.549407	2.459156	0.286824	
0.404080	0.986697	0.486242	0.643202	0.526559	2.407892	0.284075	
0.408420	0.975439	0.502868	0.637999	0.514666	2.379260	0.282852	
0.416563	0.957046	0.530479	0.629890	0.495230	2.330970	0.280903	
0.427187	0.929338	0.569266	0.621138	0.470556	2.276213	0.277052	
0.435330	0.900935	0.606791	0.615078	0.449218	2.236328	0.272218	
0.439670	0.890488	0.622161	0.612450	0.440103	2.214928	0.270738	
0.447813	0.871346	0.649207	0.608641	0.425019	2.182513	0.267657	
0.458437	0.837041	0.693163	0.604929	0.403841	2.151333	0.260678	
0.466580	0.804504	0.734884	0.602616	0.385378	2.128424	0.253564	
0.470920	0.798943	0.743535	0.601884	0.381039	2.118366	0.252628	
0.479063	0.777063	0.770963	0.600943	0.370006	2.109420	0.247416	
0.489687	0.734308	0.822603	0.600198	0.351753	2.110746	0.236148	
0.497830	0.705906	0.857953	0.599843	0.340040	2.114607	0.228400	
0.502170	0.702356	0.861725	0.599752	0.338977	2.117606	0.227312	
0.510313	0.673570	0.894105	0.599395	0.330160	2.141843	0.218476	
0.520937	0.629745	0.945281	0.598623	0.317266	2.187346	0.204610	
0.529080	0.606381	0.970771	0.597651	0.311926	2.225381	0.196680	
0.533420	0.599957	0.974922	0.596889	0.311767	2.245635	0.194142	
0.541563	0.565500	1.011697	0.594504	0.305100	2.318899	0.181968	
0.552187	0.528109	1.051005	0.590637	0.298959	2.418521	0.168328	
0.560330	0.506351	1.068970	0.586673	0.297370	2.499890	0.159870	
0.564670	0.494434	1.077531	0.583945	0.296908	2.551000	0.155142	
0.572813	0.463271	1.107139	0.577682	0.293753	2.680355	0.143209	
0.583437	0.431885	1.131428	0.568654	0.292219	2.845155	0.130884	
0.591580	0.410817	1.142419	0.560361	0.292278	2.981723	0.122440	
0.595920	0.398203	1.148932	0.555093	0.292270	3.069350	0.117441	
0.604063	0.373128	1.164582	0.544661	0.291633	3.255287	0.107683	
0.614687	0.347611	1.171068	0.530363	0.292006	3.485069	0.097714	
0.622830	0.329487	1.169984	0.518097	0.292585	3.674691	0.090690	
0.627170	0.318543	1.170198	0.510798	0.292697	3.795089	0.086552	
0.635313	0.300155	1.167985	0.497433	0.292699	4.018023	0.079679	
0.645937	0.280804	1.153503	0.479561	0.292746	4.282377	0.072595	
0.654080	0.266618	1.137645	0.464972	0.292438	4.497212	0.067520	
0.658420	0.258422	1.128999	0.456763	0.292065	4.628375	0.064650	
0.666563	0.245895	1.108895	0.442234	0.291051	4.840913	0.060345	
0.677187	0.231952	1.074887	0.423026	0.289030	5.086718	0.055723	
0.685330	0.221691	1.044941	0.407914	0.286882	5.277573	0.052415	
0.689670	0.216116	1.028241	0.399776	0.285529	5.382368	0.050663	
0.697813	0.207834	0.994998	0.385426	0.282546	5.533699	0.048140	
0.708437	0.198097	0.946741	0.366551	0.277772	5.701271	0.045301	
0.716580	0.190996	0.907112	0.352076	0.273496	5.820373	0.043292	
0.720920	0.187368	0.885604	0.344512	0.271036	5.877148	0.042295	
0.729063	0.181852	0.845120	0.330960	0.266018	5.939872	0.040875	
0.739687	0.175071	0.789199	0.313193	0.258673	5.996130	0.039214	
0.747830	0.170201	0.745065	0.299784	0.252543	6.019416	0.038081	
0.752170	0.167831	0.721811	0.292878	0.249157	6.018588	0.037567	
0.760313	0.163998	0.678480	0.280228	0.242481	5.991672	0.036812	
0.770937	0.159178	0.620007	0.263743	0.233148	5.935928	0.035921	
0.779080	0.155773	0.575141	0.251434	0.225670	5.870598	0.035362	
0.783420	0.154156	0.551977	0.245124	0.221640	5.825662	0.035135	
0.791563	0.151364	0.508558	0.233407	0.213833	5.721965	0.034818	
0.802187	0.147870	0.451450	0.218383	0.203314	5.569343	0.034486	
0.810330	0.145453	0.408941	0.207357	0.195195	5.432544	0.034350	
0.814670	0.144315	0.387376	0.201749	0.190921	5.357578	0.034320	
0.822813	0.142279	0.347170	0.191403	0.182829	5.202770	0.034335	
0.833437	0.139823	0.296663	0.178612	0.172459	4.993096	0.034440	
0.841580	0.138185	0.260821	0.169565	0.164865	4.833213	0.034592	
0.845920	0.137425	0.243143	0.165065	0.161003	4.746135	0.034712	
0.854063	0.136066	0.211062	0.156986	0.153955	4.582983	0.034969	
0.864687	0.134523	0.173367	0.147537	0.145515	4.381987	0.035347	
0.872830	0.133546	0.148237	0.141189	0.139722	4.240116	0.035664	
0.877170	0.133101	0.136249	0.138122	0.136887	4.168346	0.035845	
0.885313	0.132321	0.115218	0.132791	0.131913	4.038840	0.036193	
0.895937	0.131484	0.092008	0.126866	0.126309	3.893928	0.036616	
0.904080	0.130977	0.077301	0.123046	0.122655	3.796106	0.036933	
0.908420	0.130748	0.070411	0.121231	0.120907	3.748106	0.037099	
0.916563	0.130351	0.058609	0.118146	0.117922	3.666847	0.037386	
0.927187	0.129942	0.046106	0.114821	0.114683	3.578242	0.037718	
0.935330	0.129700	0.038383	0.112719	0.112623	3.521303	0.037945	
0.939670	0.129589	0.034761	0.111721	0.111643	3.492370	0.038066	
0.947813	0.129399	0.028664	0.110052	0.109999	3.448296	0.038247	
0.958437	0.129210	0.022364	0.108281	0.108249	3.396700	0.038473	
0.966580	0.129098	0.018505	0.107168	0.107146	3.366313	0.038609	
0.970920	0.129045	0.016675	0.106638	0.106620	3.350070	0.038685	
0.979063	0.128957	0.013659	0.105763	0.105751	3.326773	0.038791	
0.989687	0.128871	0.010597	0.104845	0.104838	3.301156	0.038911	
0.997830	0.128820	0.008725	0.104268	0.104263	3.282788	0.039002	
