TITLE = "DG1DFDX16-P4RK4w10iv80"
VARIABLES = "x" "Density" "Velocity in x" "Energy" "Pressure" "Temperature" "Fugacity"
ZONE T = "Final Time 0.10"
I = 80, J = 1, K = 1, F = POINT

0.002932	0.837306	0.001010	0.911063	0.911063	3.991244	0.282384	
0.014423	0.837242	0.001369	0.910399	0.910398	3.988482	0.282474	
0.031250	0.837108	0.002099	0.909060	0.909059	3.982904	0.282656	
0.048077	0.836903	0.003168	0.907147	0.907143	3.975234	0.282897	
0.059568	0.836701	0.004173	0.905405	0.905397	3.968317	0.283109	
0.065432	0.836579	0.004786	0.904352	0.904343	3.964320	0.283230	
0.076923	0.836281	0.006239	0.901915	0.901898	3.954746	0.283517	
0.093750	0.835666	0.009109	0.897266	0.897231	3.936589	0.284045	
0.110577	0.834787	0.013105	0.891038	0.890967	3.912210	0.284740	
0.122068	0.833977	0.016658	0.885694	0.885578	3.891769	0.285299	
0.127932	0.833473	0.018792	0.882571	0.882424	3.880167	0.285601	
0.139423	0.832336	0.023623	0.875632	0.875399	3.853822	0.286296	
0.156250	0.830143	0.032581	0.863293	0.862853	3.807201	0.287474	
0.173077	0.827177	0.044198	0.848121	0.847314	3.750903	0.288803	
0.184568	0.824669	0.053840	0.836059	0.834864	3.706069	0.289830	
0.190432	0.823166	0.059381	0.829363	0.827911	3.681306	0.290359	
0.201923	0.819839	0.071503	0.815178	0.813082	3.629125	0.291431	
0.218750	0.813958	0.092397	0.792028	0.788554	3.543368	0.293093	
0.235577	0.806602	0.117385	0.766344	0.760787	3.448342	0.294679	
0.247068	0.800679	0.136929	0.747590	0.740083	3.378471	0.295691	
0.252932	0.797469	0.147559	0.737750	0.729068	3.341158	0.296235	
0.264423	0.790324	0.170148	0.717997	0.706557	3.266525	0.297050	
0.281250	0.778413	0.206880	0.688478	0.671821	3.152732	0.297957	
0.298077	0.764834	0.247656	0.659061	0.635606	3.035219	0.298455	
0.309568	0.754167	0.278112	0.639437	0.610271	2.955636	0.298183	
0.315432	0.748606	0.294219	0.629664	0.597262	2.914177	0.298062	
0.326923	0.737094	0.326872	0.611226	0.571848	2.834340	0.297488	
0.343750	0.718269	0.377948	0.586169	0.534869	2.721819	0.295495	
0.360577	0.698121	0.431642	0.563968	0.498933	2.614254	0.292579	
0.372068	0.683772	0.469114	0.550747	0.475509	2.545639	0.289981	
0.377932	0.675107	0.489874	0.544566	0.463561	2.515055	0.287670	
0.389423	0.659764	0.528808	0.533747	0.441500	2.453534	0.284060	
0.406250	0.636228	0.586440	0.520933	0.411530	2.375737	0.277324	
0.423077	0.610037	0.646632	0.511458	0.383920	2.317510	0.267778	
0.434568	0.594401	0.684012	0.506776	0.367724	2.281604	0.262113	
0.440432	0.584744	0.704601	0.504926	0.359774	2.271914	0.257763	
0.451923	0.565008	0.746334	0.502088	0.344730	2.258739	0.248459	
0.468750	0.539191	0.800768	0.499663	0.326791	2.251601	0.235740	
0.485577	0.510571	0.856086	0.498688	0.311594	2.277214	0.219926	
0.497068	0.488304	0.897837	0.498435	0.301621	2.313514	0.207102	
0.502932	0.484027	0.905020	0.498355	0.300131	2.324094	0.204504	
0.514423	0.461330	0.943572	0.498094	0.292727	2.387878	0.190713	
0.531250	0.430964	0.992401	0.497082	0.284863	2.501026	0.172135	
0.548077	0.402362	1.031444	0.494553	0.280521	2.652089	0.154372	
0.559568	0.380305	1.060636	0.491588	0.277677	2.788593	0.141125	
0.565432	0.369351	1.074493	0.489655	0.276441	2.863782	0.134705	
0.576923	0.351097	1.089816	0.484793	0.276295	3.021080	0.123815	
0.593750	0.321208	1.115127	0.475054	0.275342	3.308373	0.107094	
0.610577	0.294410	1.125385	0.462170	0.275737	3.631056	0.092835	
0.622068	0.277325	1.124396	0.451546	0.276240	3.873023	0.084195	
0.627932	0.267952	1.124838	0.445583	0.276069	4.011812	0.079694	
0.639423	0.252568	1.114563	0.433076	0.276199	4.267314	0.072489	
0.656250	0.231831	1.087794	0.412760	0.275597	4.652620	0.063336	
0.673077	0.213423	1.048186	0.390728	0.273485	5.029244	0.055798	
0.684568	0.202672	1.012558	0.375013	0.271116	5.255758	0.051690	
0.690432	0.197616	0.992002	0.366820	0.269586	5.362871	0.049832	
0.701923	0.188121	0.949580	0.350595	0.265781	5.561106	0.046479	
0.718750	0.176491	0.878377	0.326652	0.258567	5.773016	0.042688	
0.735577	0.166559	0.800286	0.302699	0.249362	5.908187	0.039742	
0.747068	0.160656	0.744160	0.286483	0.242000	5.945782	0.038171	
0.752932	0.158017	0.714699	0.278285	0.237928	5.942980	0.037537	
0.764423	0.153071	0.655948	0.262312	0.229381	5.920074	0.036404	
0.781250	0.146742	0.568665	0.239379	0.215652	5.806185	0.035211	
0.798077	0.141391	0.481085	0.217136	0.200774	5.613842	0.034486	
0.809568	0.138163	0.422132	0.202498	0.190188	5.439274	0.034229	
0.815432	0.136642	0.392697	0.195263	0.184727	5.343164	0.034153	
0.826923	0.133991	0.336836	0.181651	0.174050	5.133441	0.034169	
0.843750	0.130653	0.260993	0.163394	0.158944	4.809985	0.034425	
0.860577	0.128027	0.195313	0.147672	0.145230	4.483199	0.034954	
0.872068	0.126616	0.157320	0.138567	0.137000	4.276056	0.035407	
0.877932	0.125989	0.140096	0.134442	0.133205	4.177961	0.035649	
0.889423	0.124969	0.110804	0.127362	0.126595	4.000753	0.036147	
0.906250	0.123864	0.077321	0.119166	0.118796	3.787064	0.036842	
0.923077	0.123101	0.053141	0.113134	0.112960	3.623825	0.037446	
0.934568	0.122733	0.040912	0.110014	0.109911	3.535201	0.037809	
0.940432	0.122584	0.035743	0.108675	0.108596	3.496607	0.037975	
0.951923	0.122338	0.027295	0.106470	0.106424	3.434507	0.038247	
0.968750	0.122089	0.018283	0.104057	0.104037	3.363389	0.038579	
0.985577	0.121926	0.012103	0.102367	0.102358	3.313879	0.038821	
0.997068	0.121848	0.009042	0.101521	0.101516	3.287201	0.038957	
