TITLE = "DG1DMBX16-P4RK4w1000iv80"
VARIABLES = "x" "Density" "Velocity in x" "Energy" "Pressure" "Temperature" "Fugacity"
ZONE T = "Final Time 0.10"
I = 80, J = 1, K = 1, F = POINT

0.002932	1.000001	-0.000002	1.000006	1.000006	4.000019	0.282094	
0.014423	1.000002	-0.000006	1.000005	1.000005	4.000014	0.282095	
0.031250	0.999997	0.000007	0.999990	0.999990	3.999972	0.282095	
0.048077	0.999999	0.000001	1.000002	1.000002	4.000011	0.282094	
0.059568	1.000011	-0.000029	1.000035	1.000035	4.000097	0.282095	
0.065432	1.000007	-0.000016	1.000014	1.000014	4.000029	0.282096	
0.076923	0.999988	0.000032	0.999959	0.999959	3.999884	0.282096	
0.093750	0.999999	-0.000002	1.000007	1.000007	4.000033	0.282093	
0.110577	1.000031	-0.000077	1.000092	1.000092	4.000244	0.282095	
0.122068	0.999984	0.000063	0.999911	0.999911	3.999709	0.282100	
0.127932	0.999928	0.000186	0.999765	0.999765	3.999348	0.282098	
0.139423	0.999976	0.000038	0.999964	0.999964	3.999950	0.282090	
0.156250	1.000116	-0.000289	1.000377	1.000377	4.001043	0.282091	
0.173077	0.999985	0.000071	0.999847	0.999847	3.999447	0.282110	
0.184568	0.999724	0.000668	0.999161	0.999161	3.997748	0.282096	
0.190432	0.999759	0.000639	0.999276	0.999275	3.998064	0.282095	
0.201923	0.999919	0.000178	0.999739	0.999739	3.999279	0.282097	
0.218750	0.998000	0.005394	0.992836	0.992821	3.979244	0.282264	
0.235577	0.989932	0.025997	0.967129	0.966794	3.906508	0.282577	
0.247068	0.979551	0.051846	0.936809	0.935492	3.820085	0.282759	
0.252932	0.973152	0.067918	0.918789	0.916544	3.767321	0.282872	
0.264423	0.958316	0.104509	0.879803	0.874570	3.650445	0.282983	
0.281250	0.932979	0.166603	0.819511	0.806563	3.458012	0.283063	
0.298077	0.904976	0.235034	0.761059	0.736063	3.253400	0.283070	
0.309568	0.884898	0.284141	0.723911	0.688189	3.110820	0.283061	
0.315432	0.874371	0.309792	0.706008	0.664051	3.037844	0.283034	
0.326923	0.853401	0.360888	0.673216	0.617643	2.894970	0.282980	
0.343750	0.821950	0.437534	0.630863	0.552188	2.687209	0.282891	
0.360577	0.789758	0.515901	0.595370	0.490272	2.483149	0.282760	
0.372068	0.767477	0.570148	0.575021	0.450279	2.346802	0.282652	
0.377932	0.756089	0.597912	0.565841	0.430691	2.278518	0.282600	
0.389423	0.733817	0.652182	0.550146	0.394084	2.148133	0.282477	
0.406250	0.702031	0.729345	0.532463	0.345742	1.969955	0.282197	
0.423077	0.673627	0.797899	0.520890	0.306460	1.819759	0.281733	
0.434568	0.658741	0.833597	0.516303	0.287429	1.745324	0.281320	
0.440432	0.653192	0.846619	0.514892	0.280799	1.719551	0.281034	
0.451923	0.647473	0.859790	0.513638	0.274319	1.694705	0.280608	
0.468750	0.646058	0.861892	0.513479	0.273514	1.693434	0.280100	
0.485577	0.646235	0.861194	0.513488	0.273846	1.695026	0.280045	
0.497068	0.645005	0.864145	0.513210	0.272383	1.689183	0.279995	
0.502932	0.645184	0.864699	0.513360	0.272156	1.687307	0.280228	
0.514423	0.643882	0.863573	0.513139	0.273049	1.696268	0.278923	
0.531250	0.642287	0.861214	0.512238	0.274049	1.706709	0.277380	
0.548077	0.642771	0.863518	0.512933	0.273288	1.700687	0.278079	
0.559568	0.623089	0.868718	0.507978	0.272865	1.751689	0.265611	
0.565432	0.598176	0.873417	0.500718	0.272557	1.822590	0.249982	
0.576923	0.497789	0.887009	0.468964	0.273138	2.194807	0.189571	
0.593750	0.324176	0.906520	0.407623	0.274422	3.386090	0.099393	
0.610577	0.219191	0.904006	0.363673	0.274109	5.002199	0.055293	
0.622068	0.191504	0.885083	0.349151	0.274141	5.726068	0.045152	
0.627932	0.182551	0.883645	0.344786	0.273516	5.993202	0.042071	
0.639423	0.174859	0.872212	0.340026	0.273513	6.256775	0.039440	
0.656250	0.171230	0.867388	0.337719	0.273305	6.384507	0.038233	
0.673077	0.170725	0.864435	0.337744	0.273957	6.418650	0.038019	
0.684568	0.170533	0.862983	0.338011	0.274510	6.438879	0.037916	
0.690432	0.170629	0.861666	0.338225	0.274881	6.443939	0.037923	
0.701923	0.171040	0.861155	0.338574	0.275153	6.434822	0.038041	
0.718750	0.170798	0.865506	0.338306	0.274333	6.424743	0.038017	
0.735577	0.170297	0.869015	0.337823	0.273520	6.424517	0.037906	
0.747068	0.170772	0.863670	0.338549	0.274857	6.438005	0.037972	
0.752932	0.171176	0.863382	0.337845	0.274046	6.403829	0.038164	
0.764423	0.171177	0.874225	0.338972	0.273560	6.392450	0.038198	
0.781250	0.169654	0.858261	0.335991	0.273506	6.448564	0.037693	
0.798077	0.171496	0.860753	0.338502	0.274972	6.413473	0.038206	
0.809568	0.172143	0.873430	0.338949	0.273287	6.350213	0.038541	
0.815432	0.173529	0.863731	0.347663	0.282934	6.521863	0.038336	
0.826923	0.154328	0.650138	0.261773	0.229158	5.939518	0.035727	
0.843750	0.126123	0.021672	0.102728	0.102699	3.257089	0.039428	
0.860577	0.123903	-0.023300	0.097013	0.096980	3.130829	0.039507	
0.872068	0.130730	0.111347	0.118067	0.117256	3.587724	0.038940	
0.877932	0.123792	-0.028255	0.096995	0.096945	3.132518	0.039461	
0.889423	0.123508	-0.025988	0.095875	0.095833	3.103696	0.039553	
0.906250	0.125944	0.016281	0.102410	0.102393	3.252013	0.039403	
0.923077	0.124424	-0.009420	0.098741	0.098735	3.174156	0.039402	
0.934568	0.124867	-0.004623	0.099200	0.099198	3.177734	0.039520	
0.940432	0.125703	0.013158	0.101815	0.101805	3.239515	0.039403	
0.951923	0.124866	-0.001906	0.099792	0.099792	3.196775	0.039401	
0.968750	0.125004	-0.000298	0.099940	0.099940	3.197989	0.039438	
0.985577	0.125040	0.001177	0.100134	0.100134	3.203242	0.039417	
0.997068	0.124908	-0.001531	0.099825	0.099825	3.196755	0.039415	
