TITLE = "DG1DMBX32-P4RK4w5000iv20"
VARIABLES = "x" "Density" "Velocity in x" "Energy" "Pressure" "Temperature" "Fugacity"
ZONE T = "Final Time 0.10"
I = 160, J = 1, K = 1, F = POINT

0.001466	0.994920	0.000000	0.889331	0.889331	3.575487	0.296856	
0.007211	0.994920	0.000000	0.889331	0.889331	3.575487	0.296856	
0.015625	0.994920	-0.000000	0.889331	0.889331	3.575488	0.296856	
0.024039	0.994920	-0.000000	0.889331	0.889331	3.575487	0.296856	
0.029784	0.994920	0.000000	0.889331	0.889331	3.575487	0.296856	
0.032716	0.994920	0.000000	0.889331	0.889331	3.575487	0.296856	
0.038461	0.994921	-0.000000	0.889332	0.889332	3.575488	0.296856	
0.046875	0.994920	0.000000	0.889331	0.889331	3.575487	0.296856	
0.055289	0.994920	0.000000	0.889331	0.889331	3.575487	0.296856	
0.061034	0.994921	-0.000001	0.889332	0.889332	3.575490	0.296856	
0.063966	0.994921	-0.000001	0.889332	0.889332	3.575490	0.296856	
0.069711	0.994920	0.000001	0.889331	0.889331	3.575485	0.296856	
0.078125	0.994920	0.000000	0.889331	0.889331	3.575486	0.296856	
0.086539	0.994921	-0.000002	0.889334	0.889334	3.575494	0.296856	
0.092284	0.994920	0.000001	0.889330	0.889330	3.575483	0.296856	
0.095216	0.994918	0.000005	0.889326	0.889326	3.575473	0.296856	
0.100961	0.994920	0.000001	0.889331	0.889331	3.575486	0.296856	
0.109375	0.994923	-0.000005	0.889337	0.889337	3.575504	0.296856	
0.117789	0.994918	0.000006	0.889324	0.889324	3.575465	0.296856	
0.123534	0.994915	0.000011	0.889319	0.889319	3.575457	0.296856	
0.126466	0.994922	-0.000004	0.889338	0.889338	3.575505	0.296856	
0.132211	0.994927	-0.000016	0.889350	0.889350	3.575537	0.296856	
0.140625	0.994916	0.000011	0.889317	0.889317	3.575445	0.296856	
0.149039	0.994912	0.000019	0.889312	0.889312	3.575439	0.296855	
0.154784	0.994940	-0.000047	0.889385	0.889385	3.575635	0.296856	
0.157716	0.994946	-0.000062	0.889400	0.889400	3.575671	0.296856	
0.163461	0.994914	0.000019	0.889310	0.889310	3.575422	0.296857	
0.171875	0.994891	0.000066	0.889254	0.889254	3.575282	0.296856	
0.180289	0.994962	-0.000103	0.889458	0.889458	3.575844	0.296854	
0.186034	0.994988	-0.000140	0.889491	0.889491	3.575885	0.296860	
0.188966	0.994914	0.000013	0.889302	0.889302	3.575393	0.296858	
0.194711	0.994821	0.000235	0.889057	0.889057	3.574742	0.296857	
0.203125	0.994931	-0.000033	0.889385	0.889385	3.575667	0.296852	
0.211539	0.995126	-0.000487	0.889882	0.889882	3.576962	0.296856	
0.217284	0.994938	0.000002	0.889314	0.889314	3.575356	0.296867	
0.220216	0.994729	0.000476	0.888767	0.888767	3.573908	0.296864	
0.225961	0.994632	0.000656	0.888578	0.888578	3.573495	0.296853	
0.234375	0.995122	-0.000485	0.889928	0.889928	3.577162	0.296847	
0.242789	0.994747	0.000455	0.888690	0.888690	3.573533	0.296885	
0.248534	0.992352	0.006188	0.882032	0.882013	3.555242	0.296931	
0.251466	0.990277	0.011080	0.876441	0.876380	3.539940	0.296950	
0.257211	0.984604	0.024298	0.861646	0.861356	3.499299	0.296959	
0.265625	0.973308	0.050462	0.833578	0.832339	3.420657	0.296907	
0.274039	0.959679	0.081935	0.801782	0.798561	3.328448	0.296777	
0.279784	0.949625	0.105158	0.779576	0.774325	3.261603	0.296662	
0.282716	0.944256	0.117473	0.768204	0.761688	3.226619	0.296579	
0.288461	0.933540	0.142168	0.746234	0.736799	3.157012	0.296429	
0.296875	0.917329	0.179488	0.715086	0.700309	3.053689	0.296168	
0.305289	0.900715	0.217799	0.685595	0.664232	2.949798	0.295881	
0.311034	0.889204	0.244387	0.666540	0.639986	2.878918	0.295673	
0.313966	0.883292	0.258054	0.657177	0.627767	2.842850	0.295565	
0.319711	0.871628	0.285002	0.639528	0.604129	2.772416	0.295343	
0.328125	0.854419	0.324830	0.615412	0.570335	2.670051	0.295010	
0.336539	0.837089	0.365050	0.593361	0.537585	2.568832	0.294665	
0.342284	0.825190	0.392721	0.579459	0.515825	2.500393	0.294425	
0.345216	0.819100	0.406898	0.572715	0.504908	2.465671	0.294303	
0.350961	0.807125	0.434792	0.560170	0.483879	2.398040	0.294061	
0.359375	0.789496	0.475928	0.543391	0.453978	2.300090	0.293699	
0.367789	0.771779	0.517398	0.528459	0.425156	2.203513	0.293332	
0.373534	0.759635	0.545883	0.519284	0.406103	2.138409	0.293079	
0.376466	0.753427	0.560458	0.514911	0.396580	2.105473	0.292949	
0.382211	0.741252	0.589067	0.506928	0.378321	2.041524	0.292694	
0.390625	0.723449	0.631007	0.496633	0.352606	1.949580	0.292323	
0.399039	0.705756	0.672816	0.487953	0.328212	1.860200	0.291944	
0.404784	0.693807	0.701113	0.482906	0.312382	1.800972	0.291682	
0.407716	0.687768	0.715421	0.480590	0.304581	1.771417	0.291546	
0.413461	0.676153	0.742962	0.476551	0.289936	1.715209	0.291280	
0.421875	0.659809	0.781786	0.471797	0.270163	1.637829	0.290877	
0.430289	0.644988	0.817155	0.468409	0.253066	1.569432	0.290473	
0.436034	0.636581	0.837220	0.466922	0.243820	1.532060	0.290162	
0.438966	0.633230	0.845163	0.466463	0.240304	1.517958	0.289972	
0.444711	0.629548	0.854130	0.466217	0.236577	1.503152	0.289703	
0.453125	0.627716	0.858363	0.466608	0.235361	1.499795	0.289183	
0.461539	0.626564	0.861584	0.467117	0.234560	1.497433	0.288880	
0.467284	0.624648	0.866280	0.467272	0.232891	1.491345	0.288583	
0.470216	0.623926	0.868020	0.467411	0.232359	1.489658	0.288413	
0.475961	0.623035	0.870201	0.467744	0.231848	1.488506	0.288113	
0.484375	0.622370	0.871935	0.468403	0.231818	1.489905	0.287670	
0.492789	0.621658	0.874100	0.469074	0.231585	1.490112	0.287321	
0.498534	0.620510	0.876887	0.469416	0.230851	1.488135	0.286981	
0.501466	0.620083	0.877803	0.469616	0.230717	1.488299	0.286768	
0.507211	0.619663	0.878800	0.470072	0.230793	1.489796	0.286429	
0.515625	0.618886	0.880561	0.470723	0.230784	1.491610	0.285896	
0.524039	0.617883	0.882955	0.471383	0.230530	1.492386	0.285358	
0.529784	0.617492	0.883866	0.471904	0.230706	1.494471	0.284979	
0.532716	0.617195	0.884145	0.472117	0.230882	1.496331	0.284665	
0.538461	0.617255	0.885228	0.472763	0.230914	1.496390	0.284687	
0.546875	0.616967	0.887069	0.473724	0.230981	1.497527	0.284446	
0.555289	0.613698	0.888482	0.473480	0.231254	1.507282	0.282022	
0.561034	0.611966	0.889599	0.473478	0.231327	1.512026	0.280784	
0.563966	0.612256	0.889242	0.473785	0.231714	1.513839	0.280749	
0.569711	0.619321	0.890743	0.477328	0.231636	1.496066	0.285670	
0.578125	0.603037	0.894290	0.472935	0.231794	1.537514	0.274384	
0.586539	0.491574	0.900326	0.431691	0.232459	1.891545	0.201654	
0.592284	0.381390	0.906864	0.389047	0.232220	2.435510	0.137879	
0.595216	0.332316	0.906533	0.369153	0.232604	2.799786	0.112051	
0.600961	0.276140	0.900670	0.343987	0.231984	3.360379	0.084988	
0.609375	0.249663	0.881377	0.327443	0.230471	3.692504	0.073303	
0.617789	0.238541	0.862456	0.316215	0.227498	3.814824	0.068905	
0.623534	0.229649	0.845608	0.307447	0.225342	3.924967	0.065399	
0.626466	0.225780	0.835600	0.302765	0.223942	3.967445	0.063952	
0.632211	0.218776	0.816081	0.293737	0.220886	4.038580	0.061420	
0.640625	0.208655	0.783540	0.279984	0.215933	4.139515	0.057860	
0.649039	0.199218	0.747285	0.266030	0.210405	4.224621	0.054684	
0.654784	0.193389	0.720832	0.256695	0.206453	4.270213	0.052800	
0.657716	0.190572	0.706876	0.252067	0.204455	4.291386	0.051902	
0.663461	0.185283	0.679766	0.243106	0.200298	4.324156	0.050270	
0.671875	0.178509	0.639729	0.230809	0.194281	4.353419	0.048269	
0.680289	0.172570	0.599478	0.219639	0.188630	4.372257	0.046563	
0.686034	0.168881	0.573562	0.212476	0.184697	4.374596	0.045555	
0.688966	0.167131	0.561499	0.208890	0.182544	4.368882	0.045112	
0.694711	0.164224	0.536478	0.202584	0.178951	4.358722	0.044379	
0.703125	0.160154	0.501419	0.194189	0.174056	4.347239	0.043337	
0.711539	0.156532	0.469907	0.186401	0.169119	4.321648	0.042482	
0.717284	0.154632	0.448093	0.181794	0.166270	4.301031	0.042067	
0.720216	0.153860	0.436903	0.179654	0.164969	4.288817	0.041916	
0.725961	0.151852	0.419201	0.175246	0.161904	4.264779	0.041486	
0.734375	0.149204	0.392848	0.169664	0.158151	4.239860	0.040882	
0.742789	0.147366	0.364163	0.164475	0.154704	4.199165	0.040573	
0.748534	0.146148	0.350838	0.160604	0.151610	4.149491	0.040478	
0.751466	0.145097	0.340526	0.158243	0.149830	4.130494	0.040279	
0.757211	0.144476	0.336019	0.158426	0.150270	4.160417	0.039962	
0.765625	0.141574	0.292167	0.149796	0.143753	4.061581	0.039633	
0.774039	0.130565	0.103407	0.114048	0.113350	3.472605	0.039530	
0.779784	0.122393	-0.050099	0.091801	0.091647	2.995174	0.039900	
0.782716	0.122086	-0.048202	0.092437	0.092295	3.023945	0.039610	
0.788461	0.126441	0.025580	0.101466	0.101425	3.208611	0.039825	
0.796875	0.125014	0.003281	0.098864	0.098864	3.163278	0.039657	
0.805289	0.124325	-0.011684	0.096641	0.096632	3.109006	0.039781	
0.811034	0.125403	0.008166	0.099290	0.099286	3.166919	0.039757	
0.813966	0.125618	0.013078	0.100030	0.100019	3.184869	0.039713	
0.819711	0.124737	-0.003114	0.097874	0.097873	3.138546	0.039724	
0.828125	0.124852	-0.001415	0.098045	0.098045	3.141144	0.039744	
0.836539	0.125068	0.002707	0.098611	0.098610	3.153816	0.039733	
0.842284	0.124861	-0.001057	0.098131	0.098131	3.143707	0.039731	
0.845216	0.124769	-0.002758	0.097886	0.097886	3.138132	0.039737	
0.850961	0.124950	0.000463	0.098300	0.098300	3.146855	0.039739	
0.859375	0.124940	0.000365	0.098304	0.098304	3.147229	0.039734	
0.867789	0.124893	-0.000525	0.098179	0.098179	3.144425	0.039737	
0.873534	0.124929	0.000123	0.098262	0.098262	3.146171	0.039737	
0.876466	0.124952	0.000554	0.098323	0.098323	3.147517	0.039736	
0.882211	0.124918	-0.000064	0.098244	0.098244	3.145883	0.039735	
0.890625	0.124917	-0.000083	0.098238	0.098238	3.145683	0.039737	
0.899039	0.124928	0.000108	0.098264	0.098264	3.146284	0.039736	
0.904784	0.124921	-0.000018	0.098248	0.098248	3.145948	0.039736	
0.907716	0.124915	-0.000120	0.098234	0.098234	3.145632	0.039736	
0.913461	0.124923	0.000015	0.098251	0.098251	3.145989	0.039736	
0.921875	0.124923	0.000016	0.098252	0.098252	3.146024	0.039736	
0.930289	0.124920	-0.000023	0.098247	0.098247	3.145900	0.039736	
0.936034	0.124922	0.000006	0.098251	0.098251	3.145978	0.039736	
0.938966	0.124923	0.000025	0.098253	0.098253	3.146039	0.039736	
0.944711	0.124921	-0.000004	0.098249	0.098249	3.145959	0.039736	
0.953125	0.124922	-0.000003	0.098249	0.098249	3.145957	0.039736	
0.961539	0.124922	0.000005	0.098251	0.098251	3.145981	0.039736	
0.967284	0.124922	-0.000002	0.098250	0.098250	3.145963	0.039736	
0.970216	0.124921	-0.000005	0.098249	0.098249	3.145952	0.039736	
0.975961	0.124922	0.000001	0.098250	0.098250	3.145970	0.039736	
0.984375	0.124922	0.000000	0.098250	0.098250	3.145969	0.039736	
0.992789	0.124922	-0.000001	0.098250	0.098250	3.145965	0.039736	
0.998534	0.124922	0.000001	0.098250	0.098250	3.145968	0.039736	
