TITLE = "DG1DBEX32-P4RK4w10000iv80"
VARIABLES = "x" "Density" "Velocity in x" "Energy" "Pressure" "Temperature" "Fugacity"
ZONE T = "Final Time 0.10"
I = 160, J = 1, K = 1, F = POINT

0.001466	1.305799	0.000001	1.136050	1.136050	3.940875	0.291703	
0.007211	1.305800	-0.000001	1.136053	1.136053	3.940882	0.291703	
0.015625	1.305799	-0.000000	1.136052	1.136052	3.940879	0.291703	
0.024039	1.305798	0.000002	1.136049	1.136049	3.940871	0.291703	
0.029784	1.305801	-0.000004	1.136057	1.136057	3.940891	0.291703	
0.032716	1.305802	-0.000004	1.136058	1.136058	3.940894	0.291703	
0.038461	1.305798	0.000002	1.136048	1.136048	3.940870	0.291703	
0.046875	1.305798	0.000002	1.136049	1.136049	3.940871	0.291703	
0.055289	1.305804	-0.000009	1.136065	1.136065	3.940909	0.291703	
0.061034	1.305796	0.000006	1.136043	1.136043	3.940858	0.291703	
0.063966	1.305790	0.000017	1.136027	1.136027	3.940820	0.291703	
0.069711	1.305800	-0.000002	1.136054	1.136054	3.940884	0.291703	
0.078125	1.305807	-0.000014	1.136073	1.136073	3.940927	0.291703	
0.086539	1.305784	0.000027	1.136011	1.136011	3.940785	0.291703	
0.092284	1.305792	0.000012	1.136034	1.136034	3.940837	0.291703	
0.095216	1.305824	-0.000044	1.136117	1.136117	3.941030	0.291703	
0.100961	1.305814	-0.000026	1.136091	1.136091	3.940969	0.291703	
0.109375	1.305768	0.000055	1.135970	1.135970	3.940690	0.291703	
0.117789	1.305818	-0.000033	1.136101	1.136101	3.940991	0.291703	
0.123534	1.305879	-0.000137	1.136256	1.136256	3.941357	0.291703	
0.126466	1.305801	-0.000003	1.136057	1.136057	3.940886	0.291703	
0.132211	1.305718	0.000143	1.135839	1.135839	3.940386	0.291703	
0.140625	1.305833	-0.000059	1.136139	1.136139	3.941079	0.291703	
0.149039	1.305914	-0.000200	1.136350	1.136350	3.941573	0.291703	
0.154784	1.305609	0.000331	1.135559	1.135559	3.939728	0.291703	
0.157716	1.305533	0.000467	1.135357	1.135357	3.939273	0.291703	
0.163461	1.305845	-0.000080	1.136172	1.136172	3.941154	0.291703	
0.171875	1.306069	-0.000472	1.136755	1.136755	3.942509	0.291703	
0.180289	1.305421	0.000661	1.135067	1.135066	3.938598	0.291703	
0.186034	1.305332	0.000814	1.134842	1.134841	3.938057	0.291703	
0.188966	1.305943	-0.000249	1.136423	1.136423	3.941747	0.291703	
0.194711	1.306519	-0.001259	1.137931	1.137930	3.945224	0.291703	
0.203125	1.305600	0.000351	1.135528	1.135527	3.939675	0.291703	
0.211539	1.304715	0.001890	1.133241	1.133238	3.934337	0.291703	
0.217284	1.306487	-0.001189	1.137828	1.137827	3.945032	0.291703	
0.220216	1.307429	-0.002856	1.140321	1.140316	3.950719	0.291703	
0.225961	1.306849	-0.001839	1.138789	1.138787	3.947217	0.291703	
0.234375	1.304257	0.002710	1.132037	1.132032	3.931575	0.291703	
0.242789	1.305318	0.000811	1.134820	1.134819	3.937977	0.291703	
0.248534	1.309096	-0.005724	1.144640	1.144619	3.960800	0.291703	
0.251466	1.309559	-0.006590	1.145948	1.145919	3.963605	0.291703	
0.257211	1.306688	-0.001535	1.138348	1.138346	3.946247	0.291703	
0.265625	1.293618	0.021296	1.104845	1.104551	3.867698	0.291703	
0.274039	1.274148	0.055388	1.057382	1.055428	3.752146	0.291703	
0.279784	1.260201	0.079816	1.025147	1.021133	3.670455	0.291703	
0.282716	1.252765	0.092783	1.008588	1.003196	3.627269	0.291703	
0.288461	1.238267	0.118152	0.977390	0.968747	3.543795	0.291703	
0.296875	1.216679	0.155931	0.933755	0.918963	3.421307	0.291703	
0.305289	1.194774	0.194265	0.892758	0.870213	3.299221	0.291703	
0.311034	1.179678	0.220751	0.866273	0.837530	3.215948	0.291718	
0.313966	1.171880	0.234327	0.853312	0.821139	3.173994	0.291703	
0.319711	1.156600	0.261064	0.828855	0.789441	3.091766	0.291703	
0.328125	1.134082	0.300436	0.795404	0.744222	2.972549	0.291703	
0.336539	1.111420	0.340112	0.764778	0.700495	2.854940	0.291703	
0.342284	1.096137	0.367241	0.745442	0.671526	2.775117	0.291779	
0.345216	1.088122	0.381188	0.736036	0.656982	2.735044	0.291764	
0.350961	1.072239	0.408647	0.718518	0.628990	2.657192	0.291703	
0.359375	1.049190	0.448994	0.695050	0.589294	2.544185	0.291703	
0.367789	1.025967	0.489613	0.673998	0.551025	2.432803	0.291703	
0.373534	1.010469	0.517283	0.660963	0.525772	2.357039	0.291839	
0.376466	1.002448	0.531507	0.654713	0.513118	2.318840	0.291885	
0.382211	0.985792	0.559913	0.643312	0.488788	2.246005	0.291703	
0.390625	0.962134	0.601316	0.628387	0.454442	2.139495	0.291703	
0.399039	0.938672	0.642537	0.615590	0.421823	2.035612	0.291749	
0.404784	0.922955	0.670512	0.607962	0.400488	1.965661	0.291885	
0.407716	0.915139	0.684606	0.604409	0.389952	1.930457	0.292005	
0.413461	0.898411	0.713238	0.598084	0.369569	1.863498	0.291824	
0.421875	0.874366	0.754897	0.590118	0.340981	1.766489	0.291734	
0.430289	0.851441	0.795129	0.583744	0.314591	1.673737	0.291824	
0.436034	0.835789	0.822379	0.580262	0.297636	1.613195	0.291794	
0.438966	0.828088	0.835931	0.578749	0.289423	1.583183	0.291824	
0.444711	0.817342	0.855755	0.576863	0.277586	1.538678	0.292096	
0.453125	0.813741	0.861021	0.576560	0.274924	1.530427	0.291703	
0.461539	0.819479	0.849828	0.577724	0.281807	1.557463	0.291311	
0.467284	0.817672	0.853119	0.577451	0.279896	1.550188	0.291341	
0.470216	0.816239	0.856972	0.577178	0.277454	1.539838	0.291703	
0.475961	0.816545	0.857644	0.577345	0.277039	1.537104	0.291990	
0.484375	0.817111	0.853803	0.577161	0.279333	1.548270	0.291326	
0.492789	0.814179	0.855850	0.576313	0.278128	1.546624	0.290631	
0.498534	0.809383	0.863158	0.575706	0.274194	1.533356	0.290268	
0.501466	0.810562	0.862115	0.576161	0.274939	1.535366	0.290450	
0.507211	0.814477	0.857583	0.577643	0.278140	1.546106	0.290752	
0.515625	0.815473	0.856092	0.578225	0.279397	1.551130	0.290661	
0.524039	0.813247	0.861362	0.577441	0.275749	1.535499	0.291190	
0.529784	0.814211	0.861435	0.577371	0.275270	1.531380	0.291764	
0.532716	0.817619	0.856088	0.577841	0.278230	1.541561	0.291960	
0.538461	0.823042	0.850935	0.578868	0.280890	1.547020	0.293063	
0.546875	0.817667	0.855597	0.576894	0.277609	1.538267	0.292217	
0.555289	0.805136	0.858830	0.572761	0.275831	1.548892	0.287942	
0.561034	0.810482	0.849820	0.573818	0.281155	1.568266	0.288033	
0.563966	0.815104	0.849629	0.574841	0.280642	1.558225	0.290042	
0.569711	0.837095	0.857382	0.584508	0.276832	1.504630	0.300147	
0.578125	0.780859	0.863833	0.565436	0.274094	1.579587	0.278940	
0.586539	0.524606	0.864312	0.473868	0.277918	2.267159	0.172150	
0.592284	0.312495	0.868925	0.397342	0.279370	3.692081	0.086114	
0.595216	0.237631	0.865894	0.370051	0.280967	4.831367	0.058457	
0.600961	0.177239	0.859113	0.344971	0.279563	6.396414	0.038458	
0.609375	0.175003	0.845225	0.342116	0.279604	6.479555	0.037748	
0.617789	0.179333	0.855292	0.342745	0.277152	6.271793	0.039274	
0.623534	0.175218	0.855135	0.341078	0.277013	6.410814	0.037990	
0.626466	0.175423	0.856452	0.340590	0.276253	6.383981	0.038111	
0.632211	0.177008	0.853827	0.341170	0.276648	6.338694	0.038579	
0.640625	0.175340	0.857621	0.343010	0.278527	6.440795	0.037930	
0.649039	0.175486	0.860242	0.344673	0.279742	6.462071	0.037899	
0.654784	0.177311	0.853472	0.345435	0.280857	6.422328	0.038398	
0.657716	0.178216	0.848535	0.344991	0.280832	6.389486	0.038685	
0.663461	0.177646	0.851078	0.343635	0.279297	6.379396	0.038594	
0.671875	0.174496	0.870316	0.342759	0.276673	6.431493	0.037779	
0.680289	0.174700	0.872301	0.342932	0.276466	6.414871	0.037869	
0.686034	0.176813	0.860873	0.343993	0.278474	6.386338	0.038398	
0.688966	0.177984	0.854481	0.344692	0.279716	6.372839	0.038685	
0.694711	0.177851	0.851077	0.345817	0.281405	6.419902	0.038519	
0.703125	0.175203	0.857841	0.344088	0.279623	6.473052	0.037809	
0.711539	0.176146	0.859046	0.342123	0.277129	6.379418	0.038277	
0.717284	0.178270	0.849613	0.341965	0.277624	6.316978	0.038911	
0.720216	0.177595	0.853552	0.341059	0.276366	6.314579	0.038776	
0.725961	0.173559	0.859911	0.338067	0.273898	6.399359	0.037673	
0.734375	0.175148	0.850938	0.339160	0.275748	6.384794	0.038050	
0.742789	0.178755	0.841769	0.343637	0.280306	6.361552	0.038881	
0.748534	0.176287	0.849161	0.343999	0.280441	6.452324	0.038096	
0.751466	0.173223	0.847205	0.343125	0.280960	6.573380	0.037114	
0.757211	0.175036	0.850027	0.341778	0.278542	6.455442	0.037824	
0.765625	0.178615	0.860482	0.341335	0.275209	6.251297	0.039183	
0.774039	0.173801	0.854467	0.341679	0.278232	6.491852	0.037461	
0.779784	0.171046	0.866137	0.339763	0.275605	6.528675	0.036782	
0.782716	0.174073	0.880067	0.338482	0.271071	6.316965	0.038020	
0.788461	0.182576	0.860255	0.347074	0.279518	6.212032	0.040150	
0.796875	0.173667	0.852424	0.348366	0.285270	6.657141	0.036978	
0.805289	0.174383	0.857874	0.341905	0.277737	6.460219	0.037673	
0.811034	0.186754	0.814435	0.345856	0.283919	6.174754	0.041162	
0.813966	0.181441	0.841433	0.331788	0.267557	5.985701	0.040633	
0.819711	0.172879	0.958788	0.371864	0.292403	6.853031	0.036298	
0.828125	0.154167	0.485730	0.217271	0.199084	5.232866	0.037023	
0.836539	0.123061	-0.173142	0.068125	0.066280	2.189577	0.045406	
0.842284	0.126008	0.047071	0.119028	0.118888	3.821323	0.035452	
0.845216	0.148086	0.219516	0.137382	0.133814	3.671152	0.042295	
0.850961	0.122052	-0.092482	0.091173	0.090651	3.013754	0.038579	
0.859375	0.131320	0.033724	0.105317	0.105242	3.251398	0.039923	
0.867789	0.129279	0.005645	0.103075	0.103073	3.233682	0.039425	
0.873534	0.125122	-0.058858	0.093422	0.093205	3.021883	0.039470	
0.876466	0.130910	0.025407	0.104182	0.104140	3.228591	0.039939	
0.882211	0.129476	0.010247	0.103362	0.103355	3.238436	0.039455	
0.890625	0.128521	-0.007706	0.100508	0.100504	3.173280	0.039561	
0.899039	0.129380	0.007517	0.102541	0.102537	3.215868	0.039561	
0.904784	0.128840	-0.002103	0.101273	0.101273	3.189087	0.039561	
0.907716	0.128400	-0.009443	0.100232	0.100226	3.167321	0.039561	
0.913461	0.129174	0.003707	0.102049	0.102048	3.205633	0.039561	
0.921875	0.128889	-0.001122	0.101379	0.101379	3.191516	0.039561	
0.930289	0.128945	-0.000156	0.101510	0.101510	3.194276	0.039561	
0.936034	0.129091	0.002246	0.101848	0.101848	3.201495	0.039561	
0.938966	0.128896	-0.000968	0.101398	0.101398	3.191828	0.039561	
0.944711	0.128929	-0.000457	0.101469	0.101469	3.193454	0.039561	
0.953125	0.128978	0.000380	0.101586	0.101586	3.195881	0.039561	
0.961539	0.128936	-0.000321	0.101488	0.101488	3.193838	0.039561	
0.967284	0.128957	0.000025	0.101536	0.101536	3.194841	0.039561	
0.970216	0.128982	0.000452	0.101596	0.101596	3.196113	0.039561	
0.975961	0.128946	-0.000152	0.101512	0.101512	3.194325	0.039561	
0.984375	0.128958	0.000037	0.101538	0.101538	3.194885	0.039561	
0.992789	0.128956	0.000021	0.101536	0.101536	3.194834	0.039561	
0.998534	0.128949	-0.000108	0.101518	0.101518	3.194454	0.039561	
