TITLE = "DG1DMBX64-P3RK4w1000iv80"
VARIABLES = "x" "Density" "Velocity in x" "Energy" "Pressure" "Temperature" "Fugacity"
ZONE T = "Final Time 0.10"
I = 256, J = 1, K = 1, F = POINT

0.001085	1.000000	0.000000	1.000000	1.000000	4.000000	0.282095	
0.005156	1.000000	0.000000	1.000000	1.000000	4.000000	0.282095	
0.010469	1.000000	0.000000	1.000000	1.000000	4.000000	0.282095	
0.014540	1.000000	0.000000	1.000000	1.000000	4.000000	0.282095	
0.016710	1.000000	0.000000	1.000000	1.000000	4.000000	0.282095	
0.020781	1.000000	0.000000	1.000000	1.000000	4.000000	0.282095	
0.026094	1.000000	0.000000	1.000000	1.000000	4.000000	0.282095	
0.030165	1.000000	0.000000	1.000000	1.000000	4.000000	0.282095	
0.032335	1.000000	0.000000	1.000000	1.000000	4.000000	0.282095	
0.036406	1.000000	0.000000	1.000000	1.000000	4.000000	0.282095	
0.041719	1.000000	0.000000	1.000000	1.000000	4.000000	0.282095	
0.045790	1.000000	0.000000	1.000000	1.000000	4.000000	0.282095	
0.047960	1.000000	0.000000	1.000000	1.000000	4.000000	0.282095	
0.052031	1.000000	0.000000	1.000000	1.000000	4.000000	0.282095	
0.057344	1.000000	0.000000	1.000000	1.000000	4.000000	0.282095	
0.061415	1.000000	0.000000	1.000000	1.000000	4.000000	0.282095	
0.063585	1.000000	0.000000	1.000000	1.000000	4.000000	0.282095	
0.067656	1.000000	0.000000	1.000000	1.000000	4.000000	0.282095	
0.072969	1.000000	0.000000	1.000000	1.000000	4.000000	0.282095	
0.077040	1.000000	0.000000	1.000000	1.000000	4.000000	0.282095	
0.079210	1.000000	0.000000	1.000000	1.000000	4.000000	0.282095	
0.083281	1.000000	0.000000	1.000000	1.000000	4.000000	0.282095	
0.088594	1.000000	0.000000	1.000000	1.000000	4.000000	0.282095	
0.092665	1.000000	0.000000	1.000000	1.000000	4.000000	0.282095	
0.094835	1.000000	0.000000	1.000000	1.000000	4.000000	0.282095	
0.098906	1.000000	0.000000	1.000000	1.000000	4.000000	0.282095	
0.104219	1.000000	0.000000	1.000000	1.000000	4.000000	0.282095	
0.108290	1.000000	0.000000	1.000000	1.000000	4.000000	0.282095	
0.110460	1.000000	0.000000	1.000000	1.000000	4.000000	0.282095	
0.114531	1.000000	0.000000	1.000000	1.000000	4.000000	0.282095	
0.119844	1.000000	0.000000	1.000000	1.000000	4.000000	0.282095	
0.123915	1.000000	-0.000000	1.000000	1.000000	4.000000	0.282095	
0.126085	1.000000	0.000000	1.000000	1.000000	4.000000	0.282095	
0.130156	1.000000	-0.000000	1.000000	1.000000	4.000000	0.282095	
0.135469	1.000000	0.000000	1.000000	1.000000	4.000000	0.282095	
0.139540	1.000000	0.000000	1.000000	1.000000	4.000000	0.282095	
0.141710	1.000000	0.000000	1.000000	1.000000	4.000000	0.282095	
0.145781	1.000000	0.000000	1.000000	1.000000	4.000000	0.282095	
0.151094	1.000000	0.000000	1.000000	1.000000	4.000000	0.282095	
0.155165	1.000000	0.000000	1.000000	1.000000	4.000000	0.282095	
0.157335	1.000000	0.000000	1.000000	1.000000	4.000000	0.282095	
0.161406	1.000000	0.000000	1.000000	1.000000	3.999999	0.282095	
0.166719	1.000000	0.000001	0.999999	0.999999	3.999996	0.282095	
0.170790	0.999999	0.000003	0.999996	0.999996	3.999989	0.282095	
0.172960	0.999998	0.000004	0.999994	0.999994	3.999981	0.282095	
0.177031	0.999997	0.000010	0.999986	0.999986	3.999958	0.282095	
0.182344	0.999989	0.000030	0.999959	0.999959	3.999877	0.282096	
0.186415	0.999977	0.000063	0.999912	0.999912	3.999738	0.282098	
0.188585	0.999966	0.000095	0.999868	0.999868	3.999611	0.282099	
0.192656	0.999931	0.000190	0.999739	0.999739	3.999229	0.282103	
0.197969	0.999835	0.000450	0.999386	0.999386	3.998202	0.282112	
0.202040	0.999697	0.000824	0.998884	0.998884	3.996748	0.282124	
0.204210	0.999586	0.001119	0.998490	0.998490	3.995614	0.282133	
0.208281	0.999285	0.001919	0.997430	0.997428	3.992565	0.282156	
0.213594	0.998630	0.003643	0.995172	0.995166	3.986122	0.282198	
0.217665	0.997855	0.005670	0.992549	0.992533	3.978666	0.282243	
0.219835	0.997319	0.007060	0.990764	0.990739	3.973610	0.282271	
0.223906	0.996044	0.010353	0.986577	0.986524	3.961770	0.282331	
0.229219	0.993781	0.016146	0.979324	0.979194	3.941289	0.282421	
0.233290	0.991532	0.021863	0.972285	0.972048	3.921399	0.282495	
0.235460	0.990144	0.025376	0.968011	0.967692	3.909297	0.282536	
0.239531	0.987171	0.032868	0.959016	0.958483	3.883755	0.282613	
0.244844	0.982585	0.044361	0.945508	0.944541	3.845126	0.282709	
0.248915	0.978543	0.054440	0.933931	0.932481	3.811713	0.282777	
0.251085	0.976215	0.060231	0.927387	0.925616	3.792674	0.282812	
0.255156	0.971535	0.071842	0.914494	0.911987	3.754829	0.282871	
0.260469	0.964869	0.088326	0.896687	0.892924	3.701740	0.282938	
0.264540	0.959375	0.101873	0.882474	0.877496	3.658614	0.282980	
0.266710	0.956325	0.109384	0.874752	0.869031	3.634877	0.283000	
0.270781	0.950392	0.123971	0.860070	0.852767	3.589116	0.283031	
0.276094	0.942285	0.143873	0.840695	0.830942	3.527348	0.283063	
0.280165	0.935828	0.159702	0.825808	0.813874	3.478734	0.283081	
0.282335	0.932308	0.168321	0.817893	0.804686	3.452445	0.283088	
0.286406	0.925576	0.184798	0.803130	0.787326	3.402535	0.283097	
0.291719	0.916566	0.206831	0.784129	0.764524	3.336473	0.283103	
0.295790	0.909511	0.224071	0.769838	0.747006	3.285309	0.283103	
0.297960	0.905703	0.233371	0.762335	0.737672	3.257896	0.283102	
0.302031	0.898479	0.251008	0.748494	0.720190	3.206262	0.283096	
0.307344	0.888914	0.274348	0.730946	0.697493	3.138627	0.283084	
0.311415	0.881492	0.292455	0.717921	0.680224	3.086696	0.283072	
0.313585	0.877506	0.302174	0.711138	0.671076	3.059014	0.283064	
0.317656	0.869978	0.320528	0.698719	0.654029	3.007105	0.283047	
0.322969	0.860070	0.344678	0.683137	0.632047	2.939514	0.283023	
0.327040	0.852419	0.363324	0.671684	0.615422	2.887884	0.283001	
0.329210	0.848324	0.373303	0.665756	0.606646	2.860447	0.282989	
0.333281	0.840608	0.392100	0.654965	0.590347	2.809140	0.282965	
0.338594	0.830489	0.416748	0.641543	0.569424	2.742595	0.282929	
0.342665	0.822700	0.435718	0.631760	0.553665	2.691941	0.282901	
0.344835	0.818539	0.445851	0.626725	0.545369	2.665084	0.282884	
0.348906	0.810714	0.464904	0.617609	0.529997	2.614965	0.282852	
0.354219	0.800480	0.489820	0.606366	0.510339	2.550164	0.282808	
0.358290	0.792623	0.508946	0.598240	0.495585	2.500990	0.282771	
0.360460	0.788433	0.519145	0.594083	0.487837	2.474971	0.282751	
0.364531	0.780568	0.538286	0.586601	0.473516	2.426520	0.282712	
0.369844	0.770312	0.563244	0.577460	0.455271	2.364089	0.282657	
0.373915	0.762462	0.582342	0.570919	0.441635	2.316890	0.282612	
0.376085	0.758287	0.592500	0.567596	0.434495	2.291986	0.282587	
0.380156	0.750470	0.611514	0.561661	0.421342	2.245752	0.282538	
0.385469	0.740323	0.636188	0.554495	0.404678	2.186493	0.282470	
0.389540	0.732603	0.654957	0.549437	0.392305	2.141981	0.282414	
0.391710	0.728515	0.664894	0.546892	0.385860	2.118613	0.282382	
0.395781	0.720903	0.683388	0.542395	0.374057	2.075494	0.282320	
0.401094	0.711125	0.707134	0.537064	0.359269	2.020847	0.282231	
0.405165	0.703783	0.724950	0.533380	0.348442	1.980393	0.282155	
0.407335	0.699940	0.734272	0.531557	0.342868	1.959416	0.282113	
0.411406	0.692883	0.751373	0.528395	0.332807	1.921291	0.282025	
0.416719	0.684063	0.772715	0.524773	0.320550	1.874389	0.281897	
0.420790	0.677682	0.788120	0.522376	0.311911	1.841044	0.281786	
0.422960	0.674446	0.795916	0.521231	0.307606	1.824349	0.281720	
0.427031	0.668746	0.809619	0.519330	0.300154	1.795328	0.281588	
0.432344	0.662159	0.825370	0.517321	0.291778	1.762586	0.281392	
0.436415	0.657881	0.835531	0.516128	0.286491	1.741902	0.281229	
0.438585	0.655894	0.840214	0.515606	0.284089	1.732530	0.281137	
0.442656	0.652757	0.847562	0.514827	0.280369	1.718063	0.280968	
0.447969	0.649749	0.854484	0.514140	0.276935	1.704877	0.280753	
0.452040	0.648198	0.857968	0.513816	0.275244	1.698516	0.280607	
0.454210	0.647590	0.859303	0.513695	0.274605	1.696164	0.280538	
0.458281	0.646763	0.861053	0.513541	0.273782	1.693246	0.280421	
0.463594	0.646145	0.862254	0.513436	0.273238	1.691494	0.280298	
0.467665	0.645873	0.862694	0.513393	0.273051	1.691050	0.280217	
0.469835	0.645775	0.862818	0.513379	0.273004	1.691017	0.280177	
0.473906	0.645635	0.862942	0.513359	0.272967	1.691155	0.280105	
0.479219	0.645503	0.862973	0.513340	0.272980	1.691577	0.280013	
0.483290	0.645410	0.862964	0.513325	0.273004	1.691976	0.279939	
0.485460	0.645360	0.862952	0.513316	0.273021	1.692211	0.279898	
0.489531	0.645261	0.862926	0.513298	0.273054	1.692670	0.279817	
0.494844	0.645119	0.862893	0.513270	0.273097	1.693313	0.279703	
0.498915	0.644997	0.862869	0.513244	0.273130	1.693840	0.279606	
0.501085	0.644926	0.862857	0.513229	0.273148	1.694135	0.279551	
0.505156	0.644780	0.862838	0.513196	0.273180	1.694714	0.279440	
0.510469	0.644562	0.862822	0.513144	0.273218	1.695527	0.279278	
0.514540	0.644367	0.862820	0.513096	0.273244	1.696201	0.279139	
0.516710	0.644253	0.862821	0.513067	0.273257	1.696583	0.279058	
0.520781	0.644012	0.862830	0.513005	0.273280	1.697362	0.278889	
0.526094	0.643638	0.862849	0.512907	0.273310	1.698535	0.278631	
0.530165	0.643284	0.862872	0.512812	0.273334	1.699615	0.278389	
0.532335	0.643068	0.862894	0.512756	0.273346	1.700264	0.278243	
0.536406	0.642519	0.862957	0.512607	0.273366	1.701843	0.277876	
0.541719	0.641498	0.863101	0.512336	0.273396	1.704735	0.277199	
0.545790	0.640119	0.863365	0.511974	0.273402	1.708442	0.276303	
0.547960	0.639050	0.863583	0.511701	0.273407	1.711336	0.275608	
0.552031	0.635885	0.864234	0.510866	0.273394	1.719773	0.273570	
0.557344	0.627970	0.865875	0.508778	0.273371	1.741297	0.268490	
0.561415	0.616722	0.868090	0.505696	0.273322	1.772740	0.261332	
0.563585	0.608128	0.869702	0.503274	0.273286	1.797554	0.255905	
0.567656	0.586115	0.873651	0.496932	0.273252	1.864833	0.242152	
0.572969	0.543740	0.880787	0.484064	0.273151	2.009425	0.216412	
0.577040	0.502609	0.887223	0.470980	0.273162	2.173950	0.192323	
0.579210	0.478375	0.890917	0.463015	0.273164	2.284100	0.178581	
0.583281	0.431249	0.897723	0.446980	0.273207	2.534099	0.152842	
0.588594	0.372082	0.905153	0.425795	0.273372	2.938829	0.122455	
0.592665	0.331462	0.909217	0.410500	0.273494	3.300458	0.102937	
0.594835	0.312274	0.910403	0.403005	0.273594	3.504538	0.094112	
0.598906	0.280751	0.911142	0.390278	0.273742	3.900136	0.080206	
0.604219	0.248268	0.909040	0.376501	0.273922	4.413318	0.066675	
0.608290	0.229147	0.905458	0.367953	0.274019	4.783303	0.059112	
0.610460	0.220718	0.903095	0.364064	0.274058	4.966663	0.055877	
0.614531	0.207696	0.898003	0.357850	0.274106	5.278972	0.051001	
0.619844	0.195167	0.890974	0.351585	0.274120	5.618166	0.046455	
0.623915	0.188250	0.885743	0.347953	0.274108	5.824328	0.044009	
0.626085	0.185303	0.883170	0.346360	0.274093	5.916648	0.042980	
0.630156	0.180927	0.878778	0.343925	0.274064	6.059118	0.041469	
0.635469	0.176951	0.874085	0.341618	0.274020	6.194258	0.040113	
0.639540	0.174897	0.871281	0.340375	0.273990	6.266310	0.039419	
0.641710	0.174060	0.870056	0.339856	0.273974	6.296080	0.039137	
0.645781	0.172876	0.868202	0.339104	0.273949	6.338639	0.038740	
0.651094	0.171878	0.866503	0.338450	0.273925	6.374873	0.038407	
0.655165	0.171408	0.865625	0.338135	0.273917	6.392184	0.038250	
0.657335	0.171227	0.865272	0.338014	0.273915	6.398890	0.038190	
0.661406	0.170989	0.864784	0.337855	0.273918	6.407833	0.038110	
0.666719	0.170811	0.864403	0.337739	0.273925	6.414672	0.038050	
0.670790	0.170740	0.864259	0.337698	0.273931	6.417489	0.038026	
0.672960	0.170716	0.864219	0.337685	0.273934	6.418468	0.038017	
0.677031	0.170690	0.864190	0.337680	0.273942	6.419635	0.038008	
0.682344	0.170680	0.864200	0.337695	0.273959	6.420422	0.038004	
0.686415	0.170684	0.864220	0.337719	0.273979	6.420751	0.038004	
0.688585	0.170688	0.864234	0.337734	0.273991	6.420873	0.038004	
0.692656	0.170698	0.864277	0.337764	0.274011	6.420971	0.038006	
0.697969	0.170712	0.864372	0.337804	0.274031	6.420920	0.038009	
0.702040	0.170722	0.864475	0.337835	0.274043	6.420799	0.038012	
0.704210	0.170727	0.864532	0.337852	0.274050	6.420752	0.038013	
0.708281	0.170738	0.864626	0.337889	0.274069	6.420791	0.038016	
0.713594	0.170754	0.864716	0.337945	0.274106	6.421060	0.038018	
0.717665	0.170767	0.864768	0.337991	0.274140	6.421351	0.038020	
0.719835	0.170774	0.864806	0.338015	0.274155	6.421461	0.038022	
0.723906	0.170785	0.864910	0.338056	0.274176	6.421547	0.038024	
0.729219	0.170797	0.865096	0.338106	0.274195	6.421546	0.038026	
0.733290	0.170805	0.865253	0.338148	0.274211	6.421623	0.038028	
0.735460	0.170809	0.865324	0.338174	0.274224	6.421761	0.038029	
0.739531	0.170821	0.865413	0.338232	0.274265	6.422272	0.038030	
0.744844	0.170839	0.865486	0.338317	0.274332	6.423159	0.038031	
0.748915	0.170853	0.865570	0.338377	0.274375	6.423633	0.038033	
0.751085	0.170858	0.865664	0.338403	0.274385	6.423675	0.038034	
0.755156	0.170866	0.865881	0.338452	0.274399	6.423727	0.038035	
0.760469	0.170875	0.866172	0.338526	0.274426	6.424001	0.038037	
0.764540	0.170885	0.866342	0.338594	0.274465	6.424558	0.038037	
0.766710	0.170891	0.866422	0.338634	0.274491	6.424957	0.038037	
0.770781	0.170908	0.866453	0.338726	0.274572	6.426218	0.038037	
0.776094	0.170931	0.866470	0.338839	0.274674	6.427713	0.038038	
0.780165	0.170939	0.866681	0.338875	0.274675	6.427430	0.038041	
0.782335	0.170934	0.866926	0.338879	0.274645	6.426914	0.038041	
0.786406	0.170925	0.867097	0.338898	0.274643	6.427193	0.038038	
0.791719	0.170919	0.866945	0.338901	0.274671	6.428096	0.038034	
0.795790	0.170896	0.866591	0.338785	0.274616	6.427676	0.038030	
0.797960	0.170874	0.866332	0.338692	0.274570	6.427431	0.038026	
0.802031	0.170785	0.864779	0.338302	0.274442	6.427799	0.038005	
0.807344	0.170578	0.861105	0.337125	0.273884	6.422485	0.037975	
0.811415	0.170182	0.856517	0.334991	0.272567	6.406490	0.037934	
0.813585	0.169717	0.852677	0.333046	0.271348	6.395318	0.037863	
0.817656	0.168817	0.838102	0.328107	0.268817	6.369440	0.037739	
0.822969	0.165860	0.794987	0.313454	0.261042	6.295455	0.037295	
0.827040	0.160119	0.710916	0.283326	0.242864	6.067090	0.036676	
0.829210	0.155867	0.634242	0.259033	0.227684	5.843028	0.036380	
0.833281	0.140140	0.349360	0.179128	0.170576	4.868725	0.035833	
0.838594	0.126613	0.042350	0.108971	0.108858	3.439074	0.038520	
0.842665	0.124136	-0.017418	0.097103	0.097084	3.128306	0.039598	
0.844835	0.125948	0.019095	0.102961	0.102938	3.269232	0.039300	
0.848906	0.125234	0.005581	0.101104	0.101102	3.229223	0.039319	
0.854219	0.124843	-0.003011	0.099543	0.099543	3.189369	0.039440	
0.858290	0.125062	0.000612	0.100016	0.100016	3.198928	0.039450	
0.860460	0.125082	0.001845	0.100313	0.100313	3.207899	0.039401	
0.864531	0.124975	-0.000396	0.099952	0.099952	3.199109	0.039421	
0.869844	0.125001	-0.000053	0.099985	0.099985	3.199512	0.039427	
0.873915	0.125012	0.000261	0.100039	0.100039	3.200939	0.039422	
0.876085	0.124995	-0.000061	0.099997	0.099997	3.200038	0.039422	
0.880156	0.124998	-0.000040	0.099992	0.099992	3.199801	0.039425	
0.885469	0.125001	0.000017	0.100003	0.100003	3.200060	0.039424	
0.889540	0.125000	0.000003	0.100001	0.100001	3.200041	0.039424	
0.891710	0.124999	-0.000013	0.099998	0.099998	3.199946	0.039424	
0.895781	0.125000	0.000001	0.100000	0.100000	3.200001	0.039424	
0.901094	0.125000	0.000001	0.100000	0.100000	3.200005	0.039424	
0.905165	0.125000	-0.000002	0.100000	0.100000	3.199995	0.039424	
0.907335	0.125000	-0.000000	0.100000	0.100000	3.199998	0.039424	
0.911406	0.125000	0.000000	0.100000	0.100000	3.200001	0.039424	
0.916719	0.125000	-0.000000	0.100000	0.100000	3.200000	0.039424	
0.920790	0.125000	-0.000000	0.100000	0.100000	3.200000	0.039424	
0.922960	0.125000	0.000000	0.100000	0.100000	3.200000	0.039424	
0.927031	0.125000	0.000000	0.100000	0.100000	3.200000	0.039424	
0.932344	0.125000	-0.000000	0.100000	0.100000	3.200000	0.039424	
0.936415	0.125000	0.000000	0.100000	0.100000	3.200000	0.039424	
0.938585	0.125000	0.000000	0.100000	0.100000	3.200000	0.039424	
0.942656	0.125000	-0.000000	0.100000	0.100000	3.200000	0.039424	
0.947969	0.125000	0.000000	0.100000	0.100000	3.200000	0.039424	
0.952040	0.125000	0.000000	0.100000	0.100000	3.200000	0.039424	
0.954210	0.125000	-0.000000	0.100000	0.100000	3.200000	0.039424	
0.958281	0.125000	-0.000000	0.100000	0.100000	3.200000	0.039424	
0.963594	0.125000	0.000000	0.100000	0.100000	3.200000	0.039424	
0.967665	0.125000	-0.000000	0.100000	0.100000	3.200000	0.039424	
0.969835	0.125000	-0.000000	0.100000	0.100000	3.200000	0.039424	
0.973906	0.125000	0.000000	0.100000	0.100000	3.200000	0.039424	
0.979219	0.125000	0.000000	0.100000	0.100000	3.200000	0.039424	
0.983290	0.125000	-0.000000	0.100000	0.100000	3.200000	0.039424	
0.985460	0.125000	0.000000	0.100000	0.100000	3.200000	0.039424	
0.989531	0.125000	0.000000	0.100000	0.100000	3.200000	0.039424	
0.994844	0.125000	-0.000000	0.100000	0.100000	3.200000	0.039424	
0.998915	0.125000	-0.000000	0.100000	0.100000	3.200000	0.039424	
