TITLE = "DG1DBEX32-P5RK4w100iv80"
VARIABLES = "x" "Density" "Velocity in x" "Energy" "Pressure" "Temperature" "Fugacity"
ZONE T = "Final Time 0.10"
I = 192, J = 1, K = 1, F = POINT

0.001055	1.260830	0.000002	1.118738	1.118738	3.999558	0.282172	
0.005294	1.260830	0.000002	1.118738	1.118738	3.999558	0.282172	
0.011897	1.260830	0.000003	1.118736	1.118736	3.999556	0.282172	
0.019353	1.260829	0.000004	1.118734	1.118734	3.999554	0.282172	
0.025956	1.260829	0.000005	1.118731	1.118731	3.999551	0.282172	
0.030195	1.260829	0.000006	1.118729	1.118729	3.999548	0.282172	
0.032305	1.260828	0.000007	1.118728	1.118728	3.999547	0.282172	
0.036544	1.260828	0.000008	1.118725	1.118725	3.999544	0.282172	
0.043147	1.260827	0.000011	1.118718	1.118718	3.999537	0.282172	
0.050603	1.260825	0.000016	1.118708	1.118708	3.999525	0.282172	
0.057206	1.260822	0.000023	1.118693	1.118693	3.999509	0.282172	
0.061445	1.260820	0.000029	1.118680	1.118680	3.999492	0.282172	
0.063555	1.260818	0.000033	1.118674	1.118674	3.999484	0.282172	
0.067794	1.260816	0.000040	1.118656	1.118656	3.999468	0.282172	
0.074397	1.260804	0.000072	1.118596	1.118596	3.999392	0.282172	
0.081853	1.260784	0.000123	1.118486	1.118486	3.998721	0.282187	
0.088456	1.260767	0.000167	1.118396	1.118396	3.998617	0.282187	
0.092695	1.260754	0.000206	1.118321	1.118321	3.998531	0.282187	
0.094805	1.260742	0.000232	1.118268	1.118268	3.998457	0.282187	
0.099044	1.260721	0.000286	1.118150	1.118150	3.997777	0.282202	
0.105647	1.260679	0.000395	1.117939	1.117939	3.997511	0.282202	
0.113103	1.260613	0.000562	1.117604	1.117603	3.996550	0.282218	
0.119706	1.260533	0.000763	1.117202	1.117202	3.994957	0.282248	
0.123945	1.260468	0.000928	1.116884	1.116883	3.994002	0.282263	
0.126055	1.260431	0.001021	1.116700	1.116699	3.993763	0.282263	
0.130294	1.260344	0.001235	1.116282	1.116281	3.992670	0.282278	
0.136897	1.260173	0.001655	1.115476	1.115474	3.990502	0.282308	
0.144353	1.259913	0.002287	1.114273	1.114270	3.986681	0.282369	
0.150956	1.259604	0.003027	1.112884	1.112878	3.983106	0.282414	
0.155195	1.259358	0.003611	1.111798	1.111790	3.979927	0.282459	
0.157305	1.259220	0.003938	1.111195	1.111185	3.978510	0.282474	
0.161544	1.258905	0.004678	1.109838	1.109824	3.974359	0.282535	
0.168147	1.258303	0.006078	1.107299	1.107276	3.967321	0.282625	
0.175603	1.257425	0.008092	1.103703	1.103662	3.957483	0.282746	
0.182206	1.256436	0.010334	1.099766	1.099699	3.946426	0.282882	
0.186445	1.255677	0.012035	1.096817	1.096726	3.938450	0.282973	
0.188555	1.255259	0.012965	1.095217	1.095111	3.934228	0.283018	
0.192794	1.254334	0.015015	1.091722	1.091580	3.924696	0.283124	
0.199397	1.252638	0.018731	1.085479	1.085260	3.907723	0.283305	
0.206853	1.250305	0.023776	1.077173	1.076819	3.884740	0.283547	
0.213456	1.247821	0.029076	1.068634	1.068107	3.861457	0.283773	
0.217695	1.246000	0.032923	1.062546	1.061870	3.844982	0.283924	
0.219805	1.245024	0.034974	1.059333	1.058572	3.836357	0.284000	
0.224044	1.242915	0.039376	1.052515	1.051551	3.817682	0.284166	
0.230647	1.239220	0.047014	1.040916	1.039546	3.785781	0.284438	
0.238103	1.234412	0.056830	1.026410	1.024417	3.745804	0.284755	
0.244706	1.229562	0.066613	1.012368	1.009640	3.706897	0.285042	
0.248945	1.226146	0.073444	1.002792	0.999485	3.679857	0.285239	
0.251055	1.224354	0.077008	0.997867	0.994236	3.666138	0.285329	
0.255294	1.220570	0.084494	0.987675	0.983318	3.637617	0.285510	
0.261897	1.214180	0.097031	0.971055	0.965340	3.590415	0.285797	
0.269353	1.206231	0.112460	0.951332	0.943705	3.533538	0.286115	
0.275956	1.198543	0.127236	0.933162	0.923460	3.480656	0.286371	
0.280195	1.193287	0.137264	0.921210	0.909969	3.445088	0.286538	
0.282305	1.190576	0.142412	0.915189	0.903116	3.427148	0.286613	
0.286544	1.184948	0.153060	0.902982	0.889102	3.390254	0.286764	
0.293147	1.175694	0.170447	0.883734	0.866656	3.330783	0.286991	
0.300603	1.164549	0.191214	0.861814	0.840525	3.261790	0.287202	
0.307206	1.154082	0.210563	0.842394	0.816809	3.198687	0.287368	
0.311445	1.147077	0.223437	0.829988	0.801355	3.157429	0.287459	
0.313555	1.143507	0.229975	0.823843	0.793604	3.136964	0.287489	
0.317794	1.136176	0.243359	0.811577	0.777933	3.094792	0.287565	
0.324397	1.124348	0.264839	0.792754	0.753324	3.028654	0.287640	
0.331853	1.110419	0.289971	0.772033	0.725349	2.952889	0.287685	
0.338456	1.097603	0.312950	0.754273	0.700525	2.885122	0.287685	
0.342695	1.089154	0.328026	0.743211	0.684614	2.841255	0.287670	
0.344805	1.084884	0.335621	0.737808	0.676706	2.819402	0.287655	
0.349044	1.076192	0.351045	0.727184	0.660872	2.775895	0.287595	
0.355647	1.062350	0.375504	0.711274	0.636376	2.707492	0.287489	
0.363103	1.046315	0.403681	0.694310	0.609057	2.630609	0.287308	
0.369706	1.031802	0.429041	0.680236	0.585271	2.563303	0.287081	
0.373945	1.022352	0.445487	0.671691	0.570244	2.520289	0.286915	
0.376055	1.017610	0.453718	0.667582	0.562840	2.498982	0.286824	
0.380294	1.008021	0.470321	0.659623	0.548135	2.456733	0.286613	
0.386897	0.992931	0.496332	0.648020	0.525718	2.391442	0.286251	
0.394353	0.975726	0.525811	0.636096	0.501213	2.319580	0.285752	
0.400956	0.960408	0.551887	0.626580	0.480320	2.257963	0.285223	
0.405195	0.950557	0.568564	0.620979	0.467339	2.219065	0.284861	
0.407305	0.945652	0.576838	0.618337	0.461008	2.200088	0.284665	
0.411544	0.935813	0.593376	0.613323	0.448575	2.163014	0.284226	
0.418147	0.920555	0.618844	0.606269	0.429998	2.107003	0.283486	
0.425603	0.903504	0.647011	0.599371	0.410257	2.047108	0.282535	
0.432206	0.888633	0.671267	0.594154	0.393945	1.997605	0.281568	
0.436445	0.879230	0.686425	0.591219	0.384081	1.967864	0.280873	
0.438555	0.874596	0.693835	0.589873	0.379354	1.953572	0.280511	
0.442794	0.865402	0.708410	0.587389	0.370241	1.926102	0.279740	
0.449397	0.851398	0.730226	0.584067	0.357071	1.886910	0.278411	
0.456853	0.836083	0.753423	0.581029	0.343730	1.847915	0.276719	
0.463456	0.822972	0.772572	0.578883	0.333280	1.818868	0.274998	
0.467695	0.814773	0.784136	0.577734	0.327245	1.802721	0.273789	
0.469805	0.810749	0.789678	0.577220	0.324432	1.795421	0.273155	
0.474044	0.802773	0.800374	0.576289	0.319161	1.782763	0.271780	
0.480647	0.790553	0.815922	0.575059	0.311913	1.766896	0.269439	
0.488103	0.776871	0.831958	0.573900	0.305043	1.755906	0.266373	
0.494706	0.764623	0.844969	0.572974	0.300014	1.751886	0.263246	
0.498945	0.756564	0.852828	0.572384	0.297254	1.752234	0.260996	
0.501055	0.752461	0.856625	0.572082	0.296002	1.753397	0.259787	
0.505294	0.743986	0.864056	0.571442	0.293715	1.757423	0.257189	
0.511897	0.729944	0.875272	0.570304	0.290699	1.768793	0.252597	
0.519353	0.712440	0.887705	0.568683	0.287974	1.790005	0.246465	
0.525956	0.695062	0.898795	0.566810	0.286063	1.816760	0.240076	
0.530195	0.682801	0.906074	0.565325	0.285046	1.838695	0.235423	
0.532305	0.676341	0.909767	0.564489	0.284593	1.851210	0.232931	
0.536544	0.662615	0.917345	0.562589	0.283787	1.879325	0.227584	
0.543147	0.639153	0.929630	0.558963	0.282780	1.933019	0.218264	
0.550603	0.609594	0.944246	0.553736	0.281978	2.009818	0.206317	
0.557206	0.580883	0.957778	0.547975	0.281542	2.094820	0.194550	
0.561445	0.561365	0.966675	0.543679	0.281392	2.158648	0.186499	
0.563555	0.551381	0.971140	0.541362	0.281355	2.193597	0.182361	
0.567794	0.530900	0.980118	0.536352	0.281352	2.269525	0.173872	
0.574397	0.498241	0.993918	0.527635	0.281535	2.406005	0.160293	
0.581853	0.461096	1.008728	0.516581	0.281991	2.587055	0.144886	
0.588456	0.428821	1.020588	0.505915	0.282585	2.771562	0.131594	
0.592695	0.408755	1.027319	0.498740	0.283043	2.902873	0.123377	
0.594805	0.399017	1.030361	0.495096	0.283289	2.971274	0.119419	
0.599044	0.380057	1.035773	0.487678	0.283811	3.116171	0.111746	
0.605647	0.352324	1.042139	0.475995	0.284673	3.356141	0.100690	
0.613103	0.323961	1.045959	0.462866	0.285654	3.646653	0.089588	
0.619706	0.301624	1.046167	0.451532	0.286474	3.914331	0.081038	
0.623945	0.288670	1.044730	0.444489	0.286953	4.089734	0.076160	
0.626055	0.282617	1.043568	0.441064	0.287174	4.176657	0.073909	
0.630294	0.271234	1.040387	0.434367	0.287574	4.352000	0.069710	
0.636897	0.255467	1.033320	0.424458	0.288070	4.617632	0.064015	
0.644353	0.240324	1.022689	0.414108	0.288431	4.904414	0.058668	
0.650956	0.229029	1.011461	0.405716	0.288561	5.140420	0.054771	
0.655195	0.222710	1.003603	0.400711	0.288552	5.281808	0.052627	
0.657305	0.219812	0.999549	0.398328	0.288520	5.350558	0.051645	
0.661544	0.214454	0.991189	0.393753	0.288407	5.477941	0.049862	
0.668147	0.207220	0.977823	0.387166	0.288101	5.658012	0.047491	
0.675603	0.200466	0.962642	0.380473	0.287590	5.834412	0.045316	
0.682206	0.195534	0.949423	0.375136	0.287008	5.966274	0.043760	
0.686445	0.192807	0.941137	0.371963	0.286574	6.039483	0.042914	
0.688555	0.191563	0.937080	0.370449	0.286342	6.071449	0.042537	
0.692794	0.189269	0.929081	0.367534	0.285847	6.131673	0.041842	
0.699397	0.186179	0.917046	0.363284	0.284999	6.216404	0.040905	
0.706853	0.183273	0.904036	0.358819	0.283926	6.288759	0.040059	
0.713456	0.181110	0.892917	0.355068	0.282868	6.336326	0.039455	
0.717695	0.179883	0.885912	0.352721	0.282131	6.360542	0.039123	
0.719805	0.179313	0.882449	0.351564	0.281747	6.375856	0.038957	
0.724044	0.178238	0.875515	0.349247	0.280934	6.391054	0.038685	
0.730647	0.176716	0.864650	0.345606	0.279547	6.415586	0.038292	
0.738103	0.175159	0.852032	0.341355	0.277776	6.432775	0.037915	
0.744706	0.173869	0.840260	0.337358	0.275979	6.438140	0.037628	
0.748945	0.173064	0.832266	0.334629	0.274691	6.436885	0.037461	
0.751055	0.172665	0.828128	0.333213	0.274006	6.433889	0.037386	
0.755294	0.171862	0.819443	0.330234	0.272532	6.427468	0.037235	
0.761897	0.170587	0.804702	0.325170	0.269939	6.412354	0.037008	
0.769353	0.169068	0.785814	0.318684	0.266484	6.389383	0.036751	
0.775956	0.167611	0.766561	0.312099	0.262854	6.354599	0.036540	
0.780195	0.166603	0.752681	0.307378	0.260186	6.331972	0.036389	
0.782305	0.166075	0.745266	0.304867	0.258746	6.313458	0.036329	
0.786544	0.164960	0.729240	0.299472	0.255610	6.277037	0.036193	
0.793147	0.163048	0.700836	0.290019	0.249977	6.211969	0.035966	
0.800603	0.160597	0.662806	0.277603	0.242327	6.115862	0.035709	
0.807206	0.158130	0.622859	0.264869	0.234195	6.002165	0.035498	
0.811445	0.156389	0.593682	0.255766	0.228205	5.911965	0.035377	
0.813555	0.155476	0.578045	0.250958	0.224982	5.863628	0.035317	
0.817794	0.153548	0.544306	0.240745	0.217999	5.749329	0.035226	
0.824397	0.150319	0.485535	0.223469	0.205750	5.544142	0.035120	
0.831853	0.146434	0.410872	0.202427	0.190067	5.256664	0.035135	
0.838456	0.142955	0.340089	0.183357	0.175089	4.961544	0.035301	
0.842695	0.140804	0.294374	0.171466	0.165366	4.758902	0.035498	
0.844805	0.139781	0.272093	0.165786	0.160612	4.657454	0.035619	
0.849044	0.137861	0.229218	0.155060	0.151439	4.452488	0.035921	
0.855647	0.135308	0.170069	0.140679	0.138723	4.155304	0.036480	
0.863103	0.133128	0.117443	0.128260	0.127342	3.879290	0.037129	
0.869706	0.131761	0.083356	0.120384	0.119926	3.691258	0.037658	
0.873945	0.131109	0.066750	0.116589	0.116297	3.598208	0.037945	
0.876055	0.130837	0.059765	0.115001	0.114767	3.557057	0.038081	
0.880294	0.130381	0.047937	0.112318	0.112168	3.489480	0.038307	
0.886897	0.129857	0.034180	0.109209	0.109133	3.408755	0.038594	
0.894353	0.129458	0.023558	0.106811	0.106775	3.344611	0.038836	
0.900956	0.129218	0.017102	0.105352	0.105333	3.305745	0.038987	
0.905195	0.129104	0.013988	0.104647	0.104634	3.286771	0.039063	
0.907305	0.129055	0.012671	0.104348	0.104338	3.279097	0.039093	
0.911544	0.128973	0.010414	0.103835	0.103828	3.267124	0.039138	
0.918147	0.128875	0.007717	0.103221	0.103217	3.249254	0.039214	
0.925603	0.128797	0.005542	0.102723	0.102721	3.235054	0.039274	
0.932206	0.128748	0.004157	0.102404	0.102403	3.227467	0.039304	
0.936445	0.128723	0.003466	0.102243	0.102242	3.223683	0.039319	
0.938555	0.128713	0.003164	0.102175	0.102174	3.220617	0.039334	
0.942794	0.128695	0.002643	0.102053	0.102053	3.217160	0.039349	
0.949397	0.128672	0.002000	0.101902	0.101902	3.213492	0.039365	
0.956853	0.128653	0.001455	0.101776	0.101775	3.210021	0.039380	
0.963456	0.128641	0.001101	0.101690	0.101690	3.206867	0.039395	
0.967695	0.128635	0.000926	0.101648	0.101648	3.206557	0.039395	
0.969805	0.128632	0.000842	0.101630	0.101630	3.206444	0.039395	
0.974044	0.128626	0.000675	0.101590	0.101590	3.203625	0.039410	
0.980647	0.128621	0.000537	0.101552	0.101552	3.203361	0.039410	
0.988103	0.128616	0.000380	0.101512	0.101512	3.203083	0.039410	
0.994706	0.128610	0.000234	0.101476	0.101476	3.200278	0.039425	
0.998945	0.128607	0.000211	0.101457	0.101457	3.200107	0.039425	
