TITLE = "DG1DFDX32-P3RK4w10000iv80"
VARIABLES = "x" "Density" "Velocity in x" "Energy" "Pressure" "Temperature" "Fugacity"
ZONE T = "Final Time 0.10"
I = 128, J = 1, K = 1, F = POINT

0.002170	0.824065	0.000009	0.905488	0.905488	4.038208	0.275179	
0.010313	0.824069	-0.000005	0.905502	0.905502	4.038251	0.275179	
0.020937	0.824071	-0.000009	0.905507	0.905507	4.038265	0.275179	
0.029080	0.824059	0.000027	0.905469	0.905469	4.038151	0.275179	
0.033420	0.824061	0.000020	0.905476	0.905476	4.038173	0.275179	
0.041563	0.824075	-0.000023	0.905522	0.905522	4.038308	0.275179	
0.052187	0.824073	-0.000016	0.905514	0.905514	4.038287	0.275179	
0.060330	0.824040	0.000087	0.905405	0.905405	4.037961	0.275179	
0.064670	0.824053	0.000045	0.905449	0.905449	4.038094	0.275179	
0.072813	0.824093	-0.000078	0.905580	0.905580	4.038480	0.275179	
0.083437	0.824079	-0.000035	0.905534	0.905534	4.038346	0.275179	
0.091580	0.823986	0.000253	0.905230	0.905230	4.037437	0.275179	
0.095920	0.824024	0.000137	0.905352	0.905352	4.037807	0.275179	
0.104063	0.824138	-0.000220	0.905730	0.905730	4.038925	0.275179	
0.114687	0.824117	-0.000152	0.905658	0.905658	4.038717	0.275179	
0.122830	0.823853	0.000667	0.904793	0.904792	4.036129	0.275179	
0.127170	0.823891	0.000553	0.904914	0.904913	4.036504	0.275179	
0.135313	0.824213	-0.000455	0.905978	0.905978	4.039662	0.275179	
0.145937	0.824334	-0.000825	0.906370	0.906370	4.040840	0.275179	
0.154080	0.823655	0.001281	0.904143	0.904142	4.034189	0.275179	
0.158420	0.823406	0.002064	0.903318	0.903317	4.031752	0.275179	
0.166563	0.824057	0.000035	0.905462	0.905462	4.038125	0.275179	
0.177187	0.825151	-0.003376	0.909075	0.909071	4.048863	0.275179	
0.185330	0.824369	-0.000928	0.906482	0.906482	4.041182	0.275179	
0.189670	0.822990	0.003341	0.901961	0.901956	4.027676	0.275179	
0.197813	0.822412	0.005176	0.900062	0.900051	4.022027	0.275179	
0.208437	0.824853	-0.002472	0.908101	0.908099	4.045935	0.275179	
0.216580	0.827622	-0.011059	0.917277	0.917226	4.073140	0.275179	
0.220920	0.827086	-0.009403	0.915532	0.915496	4.067866	0.275179	
0.229063	0.822782	0.004025	0.901259	0.901252	4.025643	0.275179	
0.239687	0.811721	0.038468	0.866004	0.865403	3.918137	0.275179	
0.247830	0.800978	0.071981	0.833501	0.831426	3.814750	0.275194	
0.252170	0.795093	0.090292	0.816536	0.813295	3.759251	0.275179	
0.260313	0.783684	0.125843	0.785000	0.778794	3.652141	0.275179	
0.270937	0.768528	0.173048	0.745982	0.734475	3.512249	0.275179	
0.279080	0.756841	0.209661	0.717867	0.701233	3.404979	0.275239	
0.283420	0.750442	0.229445	0.703522	0.683768	3.348573	0.275194	
0.291563	0.738449	0.266794	0.677851	0.651570	3.242702	0.275179	
0.302187	0.722688	0.315887	0.646788	0.610732	3.105753	0.275179	
0.310330	0.710656	0.353743	0.624840	0.580376	3.001251	0.275285	
0.314670	0.704147	0.374037	0.613826	0.564569	2.946526	0.275285	
0.322813	0.691732	0.412378	0.594380	0.535563	2.845385	0.275179	
0.333437	0.675611	0.462491	0.571244	0.498989	2.714309	0.275179	
0.341580	0.663392	0.500994	0.555238	0.471984	2.614590	0.275330	
0.345920	0.656844	0.521630	0.547303	0.457940	2.562042	0.275405	
0.354063	0.644046	0.560936	0.533585	0.432260	2.466605	0.275179	
0.364687	0.627555	0.612353	0.517564	0.399905	2.341902	0.275179	
0.372830	0.615149	0.651626	0.506755	0.376154	2.247100	0.275405	
0.377170	0.608517	0.672687	0.501443	0.363764	2.196671	0.275572	
0.385313	0.595346	0.712670	0.492585	0.341398	2.107484	0.275194	
0.395937	0.578972	0.763666	0.482666	0.313842	1.992045	0.275285	
0.404080	0.566848	0.801710	0.476483	0.294316	1.908072	0.275405	
0.408420	0.560156	0.822955	0.473438	0.283754	1.861389	0.275572	
0.416563	0.549169	0.857179	0.469354	0.267602	1.790742	0.275420	
0.427187	0.543061	0.876009	0.467320	0.258949	1.752266	0.275315	
0.435330	0.547446	0.862775	0.468614	0.264860	1.777876	0.275572	
0.439670	0.548324	0.858626	0.468990	0.266867	1.788719	0.275103	
0.447813	0.549052	0.856955	0.469142	0.267538	1.790646	0.275360	
0.458437	0.549220	0.856787	0.469035	0.267448	1.789419	0.275572	
0.466580	0.550102	0.853549	0.469357	0.268970	1.796837	0.275420	
0.470920	0.549498	0.854957	0.469165	0.268337	1.794556	0.275269	
0.479063	0.548919	0.858372	0.469367	0.267145	1.788449	0.275481	
0.489687	0.548523	0.858732	0.469734	0.267488	1.792339	0.274892	
0.497830	0.549232	0.855607	0.469989	0.268953	1.799989	0.274620	
0.502170	0.547966	0.858590	0.469350	0.267376	1.793530	0.274454	
0.510313	0.547835	0.859146	0.469048	0.266861	1.790506	0.274650	
0.520937	0.547961	0.855898	0.469706	0.268998	1.805069	0.273412	
0.529080	0.548310	0.854586	0.470125	0.269905	1.810078	0.273170	
0.533420	0.547193	0.860259	0.469694	0.267220	1.795317	0.273834	
0.541563	0.543535	0.863282	0.468449	0.265913	1.799849	0.271267	
0.552187	0.549228	0.856183	0.470849	0.269543	1.803986	0.274257	
0.560330	0.556352	0.854963	0.473103	0.269767	1.779405	0.280752	
0.564670	0.553650	0.865096	0.472002	0.264828	1.755001	0.281432	
0.572813	0.548003	0.865064	0.469859	0.264814	1.775412	0.276130	
0.583437	0.429113	0.859445	0.427278	0.268796	2.366697	0.176681	
0.591580	0.289480	0.858286	0.377498	0.270874	3.629450	0.091204	
0.595920	0.216853	0.869718	0.350488	0.268473	4.855536	0.057777	
0.604063	0.161569	0.871231	0.326692	0.265373	6.484986	0.036721	
0.614687	0.158797	0.870495	0.324448	0.264283	6.577278	0.035815	
0.622830	0.168192	0.863177	0.328652	0.265994	6.239689	0.039032	
0.627170	0.166672	0.856510	0.328350	0.267214	6.326089	0.038398	
0.635313	0.166016	0.842287	0.328799	0.269909	6.418217	0.037960	
0.645937	0.166362	0.841297	0.329620	0.270746	6.425053	0.038020	
0.654080	0.164652	0.862117	0.328504	0.267316	6.412257	0.037658	
0.658420	0.163091	0.878048	0.327215	0.264346	6.400848	0.037325	
0.666563	0.164084	0.877322	0.326465	0.263318	6.333405	0.037764	
0.677187	0.166040	0.857412	0.328972	0.267939	6.370579	0.038111	
0.685330	0.165487	0.852217	0.330662	0.270567	6.457216	0.037718	
0.689670	0.164374	0.855487	0.330959	0.270810	6.507089	0.037310	
0.697813	0.165677	0.850693	0.330594	0.270645	6.446878	0.037794	
0.708437	0.166083	0.860458	0.329807	0.268325	6.378793	0.038096	
0.716580	0.163516	0.887440	0.328052	0.263663	6.368808	0.037522	
0.720920	0.162891	0.886860	0.328504	0.264446	6.410380	0.037250	
0.729063	0.166064	0.865156	0.330507	0.268359	6.377345	0.038096	
0.739687	0.166486	0.849929	0.330781	0.270648	6.419748	0.038066	
0.747830	0.163821	0.860873	0.328373	0.267669	6.453180	0.037341	
0.752170	0.164060	0.855290	0.328324	0.268318	6.456719	0.037386	
0.760313	0.166956	0.850164	0.328465	0.268129	6.337921	0.038428	
0.770937	0.163096	0.874133	0.325991	0.263680	6.386129	0.037371	
0.779080	0.162934	0.884470	0.326101	0.262370	6.358421	0.037416	
0.783420	0.168312	0.855038	0.331741	0.270215	6.334190	0.038760	
0.791563	0.166735	0.853006	0.333651	0.272991	6.463913	0.037990	
0.802187	0.163039	0.863629	0.326450	0.265649	6.432252	0.037220	
0.810330	0.168249	0.843796	0.328190	0.268294	6.291211	0.038881	
0.814670	0.170790	0.851786	0.331447	0.269490	6.225966	0.039697	
0.822813	0.162651	0.927551	0.345746	0.275778	6.695113	0.036374	
0.833437	0.140640	0.401055	0.174565	0.163254	4.581171	0.038066	
0.841580	0.115391	-0.341104	0.054135	0.047422	1.614267	0.053155	
0.845920	0.111004	-0.043451	0.104091	0.103986	3.703297	0.033308	
0.854063	0.128718	0.122076	0.113718	0.112758	3.456612	0.040165	
0.864687	0.117629	-0.059827	0.091811	0.091601	3.072752	0.038896	
0.872830	0.121168	-0.006340	0.097709	0.097707	3.183000	0.039380	
0.877170	0.125053	0.065949	0.107370	0.107098	3.380313	0.039440	
0.885313	0.120279	-0.014891	0.096614	0.096601	3.169491	0.039168	
0.895937	0.121398	0.001555	0.098865	0.098864	3.214258	0.039259	
0.904080	0.122011	0.014261	0.100385	0.100372	3.246838	0.039259	
0.908420	0.120709	-0.009553	0.097251	0.097246	3.177874	0.039259	
0.916563	0.121173	-0.001361	0.098330	0.098330	3.202378	0.039259	
0.927187	0.121379	0.002404	0.098842	0.098842	3.213281	0.039259	
0.935330	0.121107	-0.002526	0.098179	0.098179	3.198856	0.039259	
0.939670	0.121182	-0.001216	0.098354	0.098354	3.202821	0.039259	
0.947813	0.121312	0.001194	0.098677	0.098677	3.209726	0.039259	
0.958437	0.121216	-0.000576	0.098440	0.098440	3.204613	0.039259	
0.966580	0.121236	-0.000203	0.098490	0.098490	3.205674	0.039259	
0.970920	0.121287	0.000732	0.098615	0.098615	3.208413	0.039259	
0.979063	0.121238	-0.000166	0.098495	0.098495	3.205788	0.039259	
0.989687	0.121246	-0.000009	0.098516	0.098516	3.206249	0.039259	
0.997830	0.121256	0.000168	0.098539	0.098539	3.206759	0.039259	
