TITLE = "DG1DFDX32-P3RK4w1000iv80"
VARIABLES = "x" "Density" "Velocity in x" "Energy" "Pressure" "Temperature" "Fugacity"
ZONE T = "Final Time 0.10"
I = 128, J = 1, K = 1, F = POINT

0.002170	0.836159	0.000000	0.912453	0.912453	4.003718	0.281402	
0.010313	0.836159	-0.000000	0.912453	0.912453	4.003718	0.281402	
0.020937	0.836159	-0.000000	0.912453	0.912453	4.003718	0.281402	
0.029080	0.836159	0.000000	0.912453	0.912453	4.003717	0.281402	
0.033420	0.836159	0.000000	0.912453	0.912453	4.003718	0.281402	
0.041563	0.836159	-0.000000	0.912454	0.912454	4.003719	0.281402	
0.052187	0.836159	0.000000	0.912453	0.912453	4.003718	0.281402	
0.060330	0.836158	0.000001	0.912452	0.912452	4.003715	0.281402	
0.064670	0.836159	-0.000000	0.912454	0.912454	4.003718	0.281402	
0.072813	0.836159	-0.000001	0.912454	0.912454	4.003722	0.281402	
0.083437	0.836159	0.000001	0.912452	0.912452	4.003715	0.281402	
0.091580	0.836158	0.000003	0.912450	0.912450	4.003708	0.281402	
0.095920	0.836159	-0.000001	0.912455	0.912455	4.003722	0.281402	
0.104063	0.836160	-0.000004	0.912457	0.912457	4.003731	0.281402	
0.114687	0.836158	0.000004	0.912449	0.912449	4.003706	0.281402	
0.122830	0.836155	0.000010	0.912444	0.912444	4.003685	0.281402	
0.127170	0.836160	-0.000005	0.912460	0.912460	4.003734	0.281402	
0.135313	0.836163	-0.000012	0.912466	0.912466	4.003758	0.281402	
0.145937	0.836155	0.000011	0.912441	0.912441	4.003685	0.281402	
0.154080	0.836150	0.000023	0.912431	0.912431	4.003638	0.281402	
0.158420	0.836161	-0.000008	0.912462	0.912462	4.003740	0.281402	
0.166563	0.836176	-0.000052	0.912508	0.912508	4.003883	0.281402	
0.177187	0.836161	-0.000005	0.912455	0.912455	4.003743	0.281402	
0.185330	0.836096	0.000200	0.912232	0.912232	4.003118	0.281402	
0.189670	0.836017	0.000453	0.911958	0.911958	4.002356	0.281402	
0.197813	0.835658	0.001639	0.910568	0.910567	3.997840	0.281447	
0.208437	0.834229	0.006291	0.905306	0.905289	3.981296	0.281568	
0.216580	0.831891	0.013844	0.896973	0.896893	3.955447	0.281719	
0.220920	0.830028	0.019731	0.890596	0.890434	3.935617	0.281810	
0.229063	0.825345	0.034490	0.875055	0.874564	3.887118	0.281991	
0.239687	0.816981	0.060535	0.848754	0.847257	3.803939	0.282202	
0.247830	0.809020	0.085099	0.825133	0.822204	3.727813	0.282308	
0.252170	0.804386	0.099430	0.811847	0.807871	3.683901	0.282369	
0.260313	0.794936	0.128422	0.786019	0.779464	3.596558	0.282429	
0.270937	0.781514	0.169540	0.751686	0.740454	3.475191	0.282474	
0.279080	0.770633	0.202816	0.725734	0.709884	3.378794	0.282489	
0.283420	0.764687	0.220981	0.712215	0.693545	3.326555	0.282505	
0.291563	0.753288	0.255822	0.687631	0.662982	3.228113	0.282505	
0.302187	0.738004	0.302454	0.657266	0.623510	3.098728	0.282489	
0.310330	0.726048	0.338879	0.635496	0.593807	2.999951	0.282444	
0.314670	0.719603	0.358505	0.624451	0.578207	2.947191	0.282429	
0.322813	0.707411	0.395633	0.604819	0.549455	2.848938	0.282384	
0.333437	0.691346	0.444584	0.581368	0.513044	2.721991	0.282323	
0.341580	0.678937	0.482391	0.565061	0.486067	2.626098	0.282263	
0.345920	0.672295	0.502617	0.556953	0.472034	2.575436	0.282233	
0.354063	0.659792	0.540660	0.542818	0.446386	2.481651	0.282157	
0.364687	0.643465	0.590319	0.526449	0.414332	2.362050	0.282036	
0.372830	0.630994	0.628228	0.515445	0.390928	2.272813	0.281931	
0.377170	0.624398	0.648291	0.510121	0.378910	2.226146	0.281885	
0.385313	0.612137	0.685543	0.501119	0.357277	2.141125	0.281764	
0.395937	0.596644	0.732583	0.491288	0.331185	2.036500	0.281568	
0.404080	0.585440	0.766492	0.485202	0.313226	1.963043	0.281372	
0.408420	0.579848	0.783366	0.482479	0.304564	1.927109	0.281251	
0.416563	0.570534	0.811418	0.478388	0.290568	1.868742	0.280979	
0.427187	0.561287	0.838882	0.474923	0.277427	1.813908	0.280496	
0.435330	0.557025	0.851352	0.473549	0.271683	1.790034	0.280163	
0.439670	0.555623	0.855318	0.473138	0.269899	1.782821	0.279997	
0.447813	0.554152	0.859290	0.472738	0.268150	1.776138	0.279740	
0.458437	0.553550	0.860603	0.472607	0.267617	1.774701	0.279514	
0.466580	0.553258	0.861069	0.472551	0.267448	1.774607	0.279348	
0.470920	0.553152	0.861216	0.472541	0.267407	1.774734	0.279272	
0.479063	0.552989	0.861381	0.472529	0.267376	1.774986	0.279151	
0.489687	0.552804	0.861334	0.472521	0.267460	1.776387	0.278910	
0.497830	0.552678	0.861175	0.472496	0.267557	1.777522	0.278728	
0.502170	0.552544	0.861260	0.472457	0.267527	1.777803	0.278623	
0.510313	0.552257	0.861288	0.472384	0.267547	1.778883	0.278351	
0.520937	0.551911	0.861028	0.472340	0.267754	1.781705	0.277883	
0.529080	0.551502	0.860766	0.472239	0.267930	1.784296	0.277399	
0.533420	0.550991	0.861042	0.472126	0.267875	1.785911	0.276946	
0.541563	0.549480	0.861540	0.471623	0.267697	1.790287	0.275647	
0.552187	0.544478	0.863006	0.470573	0.267814	1.809684	0.270949	
0.560330	0.529004	0.866588	0.466518	0.267884	1.870251	0.256887	
0.564670	0.513616	0.870432	0.462224	0.267653	1.931765	0.243534	
0.572813	0.464315	0.880793	0.447528	0.267421	2.159348	0.203386	
0.583437	0.375215	0.895670	0.418089	0.267586	2.723485	0.140868	
0.591580	0.307283	0.904618	0.393666	0.267936	3.371388	0.101097	
0.595920	0.276884	0.905638	0.381770	0.268222	3.764479	0.085328	
0.604063	0.232879	0.903928	0.363400	0.268258	4.507751	0.064695	
0.614687	0.197635	0.893990	0.347232	0.268256	5.335715	0.049968	
0.622830	0.182631	0.884032	0.339582	0.268218	5.785922	0.044168	
0.627170	0.177446	0.879225	0.336850	0.268264	5.957916	0.042234	
0.635313	0.171385	0.871039	0.333514	0.268498	6.182153	0.039984	
0.645937	0.167601	0.864456	0.331251	0.268629	6.323897	0.038624	
0.654080	0.166447	0.862458	0.330432	0.268528	6.367417	0.038217	
0.658420	0.166059	0.862642	0.330091	0.268305	6.376973	0.038096	
0.666563	0.165667	0.863693	0.329742	0.267951	6.386330	0.037975	
0.677187	0.165548	0.864288	0.329691	0.267859	6.387029	0.037945	
0.685330	0.165627	0.863255	0.329912	0.268199	6.393148	0.037945	
0.689670	0.165681	0.862605	0.329981	0.268340	6.392374	0.037960	
0.697813	0.165752	0.861507	0.330116	0.268606	6.397809	0.037960	
0.708437	0.165734	0.861933	0.330067	0.268502	6.396461	0.037960	
0.716580	0.165664	0.863946	0.329832	0.268006	6.386069	0.037975	
0.720920	0.165672	0.864507	0.329803	0.267893	6.381764	0.037990	
0.729063	0.165678	0.864389	0.329957	0.268062	6.387194	0.037975	
0.739687	0.165766	0.863276	0.330252	0.268484	6.393921	0.037975	
0.747830	0.165844	0.862845	0.330403	0.268667	6.394989	0.037990	
0.752170	0.165922	0.862150	0.330557	0.268892	6.396073	0.038005	
0.760313	0.165917	0.862246	0.330634	0.268957	6.400643	0.037990	
0.770937	0.165763	0.866216	0.330580	0.268391	6.393711	0.037975	
0.779080	0.165755	0.869181	0.330796	0.268184	6.388172	0.037990	
0.783420	0.166152	0.866722	0.331778	0.269370	6.398922	0.038050	
0.791563	0.165873	0.863558	0.330909	0.269061	6.402225	0.037975	
0.802187	0.165711	0.864321	0.330151	0.268254	6.389694	0.037975	
0.810330	0.166025	0.854420	0.329724	0.269123	6.399034	0.038020	
0.814670	0.165691	0.851377	0.327638	0.267588	6.373365	0.038020	
0.822813	0.161349	0.816242	0.312066	0.258317	6.324530	0.037144	
0.833437	0.141251	0.439579	0.196497	0.182850	5.115312	0.036132	
0.841580	0.122649	0.005452	0.100713	0.100711	3.239517	0.039516	
0.845920	0.116185	-0.098382	0.085283	0.084720	2.876979	0.039727	
0.854063	0.123198	0.028313	0.102490	0.102440	3.280760	0.039440	
0.864687	0.121808	0.006736	0.099901	0.099898	3.236003	0.039259	
0.872830	0.120410	-0.021918	0.095655	0.095626	3.133924	0.039440	
0.877170	0.121877	0.002690	0.098566	0.098565	3.191729	0.039561	
0.885313	0.121810	0.004804	0.099390	0.099388	3.219252	0.039365	
0.895937	0.121452	-0.002397	0.098254	0.098253	3.193196	0.039410	
0.904080	0.121598	-0.000542	0.098486	0.098486	3.196105	0.039440	
0.908420	0.121676	0.001906	0.098895	0.098895	3.207370	0.039395	
0.916563	0.121559	-0.000400	0.098562	0.098562	3.198812	0.039410	
0.927187	0.121589	0.000017	0.098611	0.098611	3.200402	0.039410	
0.935330	0.121603	0.000311	0.098652	0.098652	3.201119	0.039410	
0.939670	0.121574	-0.000188	0.098590	0.098590	3.199600	0.039410	
0.947813	0.121585	-0.000028	0.098607	0.098607	3.200179	0.039410	
0.958437	0.121588	0.000038	0.098617	0.098617	3.200337	0.039410	
0.966580	0.121584	-0.000035	0.098607	0.098607	3.200116	0.039410	
0.970920	0.121586	-0.000017	0.098609	0.098609	3.200200	0.039410	
0.979063	0.121587	0.000014	0.098613	0.098613	3.200272	0.039410	
0.989687	0.121586	-0.000006	0.098611	0.098611	3.200215	0.039410	
0.997830	0.121586	-0.000002	0.098611	0.098611	3.200228	0.039410	
