TITLE = "DG1DMBX64-P4RK4w10000iv80"
VARIABLES = "x" "Density" "Velocity in x" "Energy" "Pressure" "Temperature" "Fugacity"
ZONE T = "Final Time 0.10"
I = 320, J = 1, K = 1, F = POINT

0.000733	1.000000	0.000000	1.000000	1.000000	4.000000	0.282095	
0.003606	1.000000	0.000000	1.000000	1.000000	4.000000	0.282095	
0.007813	1.000000	0.000000	1.000000	1.000000	4.000000	0.282095	
0.012019	1.000000	0.000000	1.000000	1.000000	4.000000	0.282095	
0.014892	1.000000	0.000000	1.000000	1.000000	4.000000	0.282095	
0.016358	1.000000	0.000000	1.000000	1.000000	4.000000	0.282095	
0.019231	1.000000	0.000000	1.000000	1.000000	4.000000	0.282095	
0.023438	1.000000	0.000000	1.000000	1.000000	4.000000	0.282095	
0.027644	1.000000	0.000000	1.000000	1.000000	4.000000	0.282095	
0.030517	1.000000	0.000000	1.000000	1.000000	4.000000	0.282095	
0.031983	1.000000	0.000000	1.000000	1.000000	4.000000	0.282095	
0.034856	1.000000	0.000000	1.000000	1.000000	4.000000	0.282095	
0.039063	1.000000	0.000000	1.000000	1.000000	4.000000	0.282095	
0.043269	1.000000	0.000000	1.000000	1.000000	4.000000	0.282095	
0.046142	1.000000	0.000000	1.000000	1.000000	4.000000	0.282095	
0.047608	1.000000	0.000000	1.000000	1.000000	4.000000	0.282095	
0.050481	1.000000	0.000000	1.000000	1.000000	4.000000	0.282095	
0.054688	1.000000	0.000000	1.000000	1.000000	4.000000	0.282095	
0.058894	1.000000	0.000000	1.000000	1.000000	4.000000	0.282095	
0.061767	1.000000	0.000000	1.000000	1.000000	4.000000	0.282095	
0.063233	1.000000	0.000000	1.000000	1.000000	4.000000	0.282095	
0.066106	1.000000	0.000000	1.000000	1.000000	4.000000	0.282095	
0.070313	1.000000	0.000000	1.000000	1.000000	4.000000	0.282095	
0.074519	1.000000	0.000000	1.000000	1.000000	4.000000	0.282095	
0.077392	1.000000	-0.000000	1.000000	1.000000	4.000000	0.282095	
0.078858	1.000000	-0.000000	1.000000	1.000000	4.000000	0.282095	
0.081731	1.000000	0.000000	1.000000	1.000000	4.000000	0.282095	
0.085938	1.000000	0.000000	1.000000	1.000000	4.000000	0.282095	
0.090144	1.000000	-0.000000	1.000000	1.000000	4.000000	0.282095	
0.093017	1.000000	-0.000000	1.000000	1.000000	4.000000	0.282095	
0.094483	1.000000	0.000000	1.000000	1.000000	4.000000	0.282095	
0.097356	1.000000	0.000000	1.000000	1.000000	4.000000	0.282095	
0.101563	1.000000	-0.000000	1.000000	1.000000	4.000000	0.282095	
0.105769	1.000000	-0.000000	1.000000	1.000000	4.000000	0.282095	
0.108642	1.000000	0.000000	1.000000	1.000000	4.000000	0.282095	
0.110108	1.000000	0.000000	1.000000	1.000000	4.000000	0.282095	
0.112981	1.000000	-0.000000	1.000000	1.000000	4.000000	0.282095	
0.117188	1.000000	-0.000000	1.000000	1.000000	4.000000	0.282095	
0.121394	1.000000	0.000000	1.000000	1.000000	4.000000	0.282095	
0.124267	1.000000	-0.000000	1.000000	1.000000	4.000000	0.282095	
0.125733	1.000000	-0.000000	1.000000	1.000000	4.000000	0.282095	
0.128606	1.000000	-0.000000	1.000000	1.000000	4.000000	0.282095	
0.132813	1.000000	0.000000	1.000000	1.000000	4.000000	0.282095	
0.137019	1.000000	-0.000000	1.000000	1.000000	4.000000	0.282095	
0.139892	1.000000	-0.000000	1.000000	1.000000	4.000000	0.282095	
0.141358	1.000000	-0.000000	1.000000	1.000000	4.000000	0.282095	
0.144231	1.000000	0.000000	1.000000	1.000000	4.000000	0.282095	
0.148438	1.000000	0.000000	1.000000	1.000000	4.000000	0.282095	
0.152644	1.000000	-0.000000	1.000000	1.000000	4.000001	0.282095	
0.155517	1.000000	0.000000	1.000000	1.000000	4.000000	0.282095	
0.156983	1.000000	0.000000	0.999999	0.999999	3.999998	0.282095	
0.159856	1.000000	0.000000	1.000000	1.000000	3.999999	0.282095	
0.164063	1.000000	-0.000001	1.000001	1.000001	4.000002	0.282095	
0.168269	1.000000	-0.000000	1.000000	1.000000	4.000000	0.282095	
0.171142	0.999999	0.000002	0.999998	0.999998	3.999995	0.282095	
0.172608	0.999999	0.000002	0.999998	0.999998	3.999995	0.282095	
0.175481	1.000000	-0.000001	1.000001	1.000001	4.000004	0.282095	
0.179688	1.000001	-0.000002	1.000002	1.000002	4.000006	0.282095	
0.183894	0.999999	0.000003	0.999996	0.999996	3.999988	0.282095	
0.186767	0.999998	0.000004	0.999995	0.999995	3.999989	0.282095	
0.188233	1.000000	-0.000001	1.000001	1.000001	4.000004	0.282095	
0.191106	1.000003	-0.000007	1.000009	1.000009	4.000024	0.282095	
0.195313	1.000000	0.000001	0.999998	0.999998	3.999995	0.282095	
0.199519	0.999994	0.000014	0.999983	0.999983	3.999954	0.282095	
0.202392	1.000000	-0.000002	1.000003	1.000003	4.000011	0.282094	
0.203858	1.000007	-0.000019	1.000024	1.000024	4.000065	0.282095	
0.206731	1.000010	-0.000023	1.000029	1.000029	4.000076	0.282095	
0.210938	0.999992	0.000021	0.999972	0.999972	3.999922	0.282095	
0.215144	0.999985	0.000036	0.999958	0.999958	3.999892	0.282094	
0.218017	1.000017	-0.000044	1.000057	1.000057	4.000159	0.282094	
0.219483	1.000038	-0.000097	1.000120	1.000120	4.000328	0.282094	
0.222356	1.000041	-0.000098	1.000120	1.000120	4.000315	0.282095	
0.226563	0.999988	0.000032	0.999954	0.999954	3.999867	0.282096	
0.230769	0.999944	0.000140	0.999832	0.999832	3.999553	0.282095	
0.233642	0.999932	0.000172	0.999782	0.999782	3.999400	0.282097	
0.235108	0.999866	0.000337	0.999570	0.999570	3.998816	0.282099	
0.237981	0.999454	0.001382	0.998249	0.998248	3.995171	0.282111	
0.242188	0.997672	0.005823	0.992753	0.992736	3.980208	0.282137	
0.246394	0.994137	0.014572	0.982117	0.982011	3.951211	0.282167	
0.249267	0.990765	0.022856	0.972222	0.971963	3.924093	0.282180	
0.250733	0.988823	0.027642	0.966577	0.966199	3.908482	0.282189	
0.253606	0.984638	0.037920	0.954627	0.953920	3.875210	0.282198	
0.257813	0.977880	0.054494	0.935811	0.934359	3.821977	0.282206	
0.262019	0.970648	0.072215	0.916285	0.913754	3.765541	0.282210	
0.264892	0.965534	0.084743	0.902841	0.899374	3.725914	0.282212	
0.266358	0.962883	0.091234	0.895992	0.891985	3.705476	0.282213	
0.269231	0.957628	0.104104	0.882648	0.877459	3.665137	0.282213	
0.273438	0.949820	0.123228	0.863383	0.856171	3.605615	0.282213	
0.277644	0.941913	0.142586	0.844548	0.834973	3.545861	0.282212	
0.280517	0.936471	0.155907	0.831971	0.820589	3.505029	0.282211	
0.281983	0.933684	0.162730	0.825650	0.813287	3.484207	0.282210	
0.284856	0.928204	0.176147	0.813459	0.799058	3.443460	0.282209	
0.289063	0.920144	0.195884	0.796086	0.778433	3.383961	0.282207	
0.293269	0.912047	0.215703	0.779294	0.758076	3.324722	0.282205	
0.296142	0.906501	0.229278	0.768166	0.744339	3.284448	0.282203	
0.297608	0.903667	0.236217	0.762594	0.737382	3.263957	0.282203	
0.300481	0.898104	0.249836	0.751887	0.723858	3.223936	0.282201	
0.304688	0.889941	0.269823	0.736707	0.704311	3.165652	0.282198	
0.308894	0.881757	0.289854	0.722114	0.685073	3.107761	0.282196	
0.311767	0.876159	0.303556	0.712484	0.672116	3.068467	0.282194	
0.313233	0.873300	0.310556	0.707675	0.665562	3.048492	0.282193	
0.316106	0.867692	0.324286	0.698455	0.652831	3.009505	0.282191	
0.320313	0.859467	0.344423	0.685434	0.634455	2.952785	0.282188	
0.324519	0.851227	0.364592	0.672972	0.616396	2.896507	0.282185	
0.327392	0.845593	0.378383	0.664780	0.604246	2.858333	0.282182	
0.328858	0.842715	0.385426	0.660698	0.598104	2.838935	0.282181	
0.331731	0.837073	0.399242	0.652891	0.586179	2.801088	0.282179	
0.335938	0.828798	0.419499	0.641907	0.568981	2.746053	0.282176	
0.340144	0.820510	0.439787	0.631444	0.552095	2.691473	0.282172	
0.343017	0.814843	0.453658	0.624593	0.540743	2.654468	0.282169	
0.344483	0.811948	0.460742	0.621188	0.535007	2.635669	0.282168	
0.347356	0.806272	0.474638	0.614694	0.523875	2.598997	0.282166	
0.351563	0.797950	0.495014	0.605598	0.507833	2.545690	0.282162	
0.355769	0.789614	0.515419	0.596980	0.492097	2.492849	0.282158	
0.358642	0.783914	0.529369	0.591366	0.481527	2.457039	0.282155	
0.360108	0.781003	0.536494	0.588584	0.476188	2.438853	0.282153	
0.362981	0.775296	0.550468	0.583297	0.465834	2.403389	0.282150	
0.367188	0.766929	0.570952	0.575933	0.450929	2.351871	0.282146	
0.371394	0.758552	0.591455	0.569007	0.436329	2.300850	0.282141	
0.374267	0.752828	0.605466	0.564524	0.426534	2.266306	0.282138	
0.375733	0.749906	0.612618	0.562312	0.421592	2.248776	0.282136	
0.378606	0.744179	0.626638	0.558128	0.412018	2.214617	0.282133	
0.382813	0.735792	0.647169	0.552345	0.398260	2.165067	0.282127	
0.387019	0.727408	0.667690	0.546958	0.384815	2.116091	0.282121	
0.389892	0.721687	0.681693	0.543503	0.375817	2.082993	0.282117	
0.391358	0.718769	0.688833	0.541808	0.371283	2.066217	0.282115	
0.394231	0.713059	0.702814	0.538622	0.362515	2.033575	0.282111	
0.398438	0.704716	0.723239	0.534264	0.349954	1.986355	0.282105	
0.402644	0.696407	0.743574	0.530260	0.337737	1.939885	0.282098	
0.405517	0.690762	0.757386	0.527726	0.329604	1.908638	0.282093	
0.406983	0.687894	0.764404	0.526495	0.325522	1.892862	0.282090	
0.409856	0.682311	0.778074	0.524206	0.317671	1.862327	0.282085	
0.414063	0.674238	0.797831	0.521137	0.306550	1.818645	0.282075	
0.418269	0.666359	0.817112	0.518402	0.295947	1.776504	0.282066	
0.421142	0.661150	0.829847	0.516732	0.289082	1.748966	0.282056	
0.422608	0.658605	0.836097	0.515953	0.285751	1.735493	0.282058	
0.425481	0.653906	0.847501	0.514601	0.279765	1.711344	0.282015	
0.429688	0.649357	0.858628	0.513393	0.274026	1.687983	0.281984	
0.433894	0.648162	0.861351	0.513121	0.272677	1.682774	0.281900	
0.436767	0.648541	0.860417	0.513219	0.273156	1.684744	0.281900	
0.438233	0.648564	0.860434	0.513219	0.273138	1.684570	0.281925	
0.441106	0.648262	0.861106	0.513140	0.272796	1.683245	0.281905	
0.445313	0.648127	0.861498	0.513116	0.272603	1.682403	0.281916	
0.449519	0.648489	0.860517	0.513214	0.273115	1.684622	0.281888	
0.452392	0.648544	0.860336	0.513213	0.273194	1.684970	0.281883	
0.453858	0.648309	0.860937	0.513149	0.272882	1.683657	0.281890	
0.456731	0.648036	0.861598	0.513082	0.272547	1.682298	0.281886	
0.460938	0.648315	0.860926	0.513181	0.272917	1.683856	0.281876	
0.465144	0.648776	0.859824	0.513286	0.273467	1.686047	0.281894	
0.468017	0.648353	0.860722	0.513161	0.272997	1.684250	0.281860	
0.469483	0.648045	0.861437	0.513085	0.272637	1.682827	0.281845	
0.472356	0.648011	0.861564	0.513082	0.272575	1.682530	0.281855	
0.476563	0.648471	0.860414	0.513225	0.273189	1.685130	0.281838	
0.480769	0.648614	0.860190	0.513239	0.273276	1.685290	0.281887	
0.483642	0.647966	0.861610	0.513067	0.272551	1.682502	0.281838	
0.485108	0.647793	0.861923	0.513032	0.272405	1.682048	0.281801	
0.487981	0.648096	0.861186	0.513114	0.272786	1.683616	0.281801	
0.492188	0.648558	0.860044	0.513242	0.273381	1.686085	0.281795	
0.496394	0.648264	0.860965	0.513148	0.272881	1.683763	0.281862	
0.499267	0.647742	0.862110	0.513022	0.272310	1.681597	0.281816	
0.500733	0.647824	0.861741	0.513051	0.272514	1.682645	0.281764	
0.503606	0.648296	0.860488	0.513173	0.273161	1.685411	0.281738	
0.507813	0.648406	0.860191	0.513186	0.273299	1.685976	0.281739	
0.512019	0.647787	0.861868	0.513030	0.272436	1.682258	0.281781	
0.514892	0.647834	0.861778	0.513062	0.272502	1.682542	0.281777	
0.516358	0.648164	0.860849	0.513148	0.272984	1.684658	0.281744	
0.519231	0.648434	0.859966	0.513213	0.273441	1.686779	0.281684	
0.523438	0.648015	0.860892	0.513070	0.272937	1.684757	0.281671	
0.527644	0.647481	0.862131	0.512955	0.272329	1.682390	0.281636	
0.530517	0.648117	0.860716	0.513137	0.273064	1.685273	0.281672	
0.531983	0.648479	0.859838	0.513223	0.273506	1.687060	0.281680	
0.534856	0.648276	0.860045	0.513165	0.273407	1.686976	0.281599	
0.539063	0.647505	0.861786	0.512929	0.272487	1.683304	0.281570	
0.543269	0.647493	0.861553	0.512962	0.272654	1.684369	0.281476	
0.546142	0.648440	0.859391	0.513209	0.273755	1.688700	0.281526	
0.547608	0.648499	0.859329	0.513209	0.273768	1.688624	0.281558	
0.550481	0.647566	0.860988	0.512946	0.272925	1.685854	0.281384	
0.554688	0.646817	0.862273	0.512735	0.272276	1.683789	0.281231	
0.558894	0.647833	0.860061	0.513027	0.273425	1.688242	0.281301	
0.561767	0.648371	0.859151	0.513170	0.273875	1.689621	0.281419	
0.563233	0.647941	0.860295	0.513032	0.273259	1.686937	0.281456	
0.566106	0.646558	0.862132	0.512679	0.272394	1.685197	0.281001	
0.570313	0.644561	0.861767	0.511885	0.272546	1.691362	0.279621	
0.574519	0.648727	0.858901	0.513306	0.274019	1.689581	0.281577	
0.577392	0.645074	0.860184	0.512186	0.273536	1.696154	0.279449	
0.578858	0.635080	0.863283	0.509035	0.272386	1.715603	0.273555	
0.581731	0.593474	0.866285	0.494689	0.272002	1.833287	0.247293	
0.585938	0.461915	0.870170	0.447833	0.272953	2.363663	0.169509	
0.590144	0.320752	0.872904	0.396405	0.274205	3.419526	0.097861	
0.593017	0.253080	0.874547	0.370278	0.273496	4.322685	0.068676	
0.594483	0.231444	0.873352	0.361581	0.273315	4.723653	0.060080	
0.597356	0.202333	0.872469	0.349596	0.272587	5.388882	0.049175	
0.601563	0.181460	0.869397	0.340650	0.272072	5.997406	0.041805	
0.605769	0.173699	0.864890	0.337456	0.272489	6.274977	0.039122	
0.608642	0.171771	0.861465	0.336873	0.273135	6.360450	0.038427	
0.610108	0.171382	0.859598	0.336840	0.273523	6.383942	0.038269	
0.612981	0.170943	0.857680	0.336827	0.273953	6.410384	0.038092	
0.617188	0.170705	0.857900	0.336637	0.273818	6.416170	0.038022	
0.621394	0.170523	0.860960	0.336189	0.272989	6.403553	0.038019	
0.624267	0.170413	0.863112	0.335895	0.272419	6.394315	0.038022	
0.625733	0.170367	0.864029	0.335773	0.272180	6.390443	0.038023	
0.628606	0.170334	0.864824	0.335682	0.271984	6.387073	0.038026	
0.632813	0.170467	0.862879	0.335989	0.272528	6.394835	0.038032	
0.637019	0.170724	0.858693	0.336589	0.273647	6.411432	0.038040	
0.639892	0.170847	0.856896	0.336836	0.274112	6.417747	0.038049	
0.641358	0.170864	0.856830	0.336843	0.274122	6.417302	0.038054	
0.644231	0.170818	0.858049	0.336669	0.273787	6.411215	0.038062	
0.648438	0.170653	0.861468	0.336195	0.272872	6.395947	0.038070	
0.652644	0.170502	0.864467	0.335792	0.272084	6.383133	0.038075	
0.655517	0.170476	0.865142	0.335716	0.271918	6.380194	0.038078	
0.656983	0.170494	0.864890	0.335768	0.272000	6.381437	0.038078	
0.659856	0.170622	0.862591	0.336102	0.272625	6.391333	0.038077	
0.664063	0.170882	0.858105	0.336745	0.273831	6.409824	0.038080	
0.668269	0.170990	0.856412	0.336961	0.274255	6.415689	0.038087	
0.671142	0.170883	0.858288	0.336686	0.273744	6.407741	0.038087	
0.672608	0.170821	0.859533	0.336512	0.273411	6.402262	0.038089	
0.675481	0.170680	0.862116	0.336151	0.272723	6.391441	0.038090	
0.679688	0.170513	0.864955	0.335758	0.271974	6.380132	0.038086	
0.683894	0.170503	0.865018	0.335769	0.271979	6.380634	0.038082	
0.686767	0.170633	0.862591	0.336124	0.272643	6.391337	0.038080	
0.688233	0.170742	0.860627	0.336405	0.273173	6.399645	0.038079	
0.691106	0.170927	0.857243	0.336877	0.274073	6.413812	0.038078	
0.695313	0.170990	0.856223	0.336999	0.274321	6.417266	0.038082	
0.699519	0.170794	0.860039	0.336468	0.273303	6.400755	0.038088	
0.702392	0.170625	0.862844	0.336085	0.272570	6.389926	0.038082	
0.703858	0.170556	0.863765	0.335945	0.272320	6.386648	0.038076	
0.706731	0.170479	0.865424	0.335725	0.271884	6.379317	0.038081	
0.710938	0.170494	0.865128	0.335785	0.271982	6.381015	0.038079	
0.715144	0.170723	0.860461	0.336464	0.273263	6.402505	0.038066	
0.718017	0.170966	0.856283	0.337046	0.274368	6.419238	0.038071	
0.719483	0.171036	0.855344	0.337166	0.274600	6.422034	0.038078	
0.722356	0.171008	0.856239	0.337049	0.274363	6.417557	0.038085	
0.726563	0.170718	0.860724	0.336396	0.273158	6.400227	0.038072	
0.730769	0.170521	0.864577	0.335867	0.272135	6.383601	0.038078	
0.733642	0.170523	0.865444	0.335760	0.271899	6.378007	0.038095	
0.735108	0.170470	0.866031	0.335695	0.271768	6.376903	0.038086	
0.737981	0.170403	0.865327	0.335754	0.271956	6.383823	0.038051	
0.742188	0.170790	0.859805	0.336579	0.273449	6.404319	0.038076	
0.746394	0.171137	0.854242	0.337376	0.274934	6.426044	0.038089	
0.749267	0.170936	0.856074	0.337090	0.274454	6.422366	0.038055	
0.750733	0.170752	0.858297	0.336742	0.273848	6.415096	0.038036	
0.753606	0.170739	0.861642	0.336316	0.272935	6.394196	0.038095	
0.757813	0.170584	0.865247	0.335914	0.272060	6.379491	0.038104	
0.762019	0.170283	0.866334	0.335671	0.271769	6.383943	0.038023	
0.764892	0.170407	0.865058	0.335803	0.272043	6.385701	0.038046	
0.766358	0.170754	0.863969	0.336043	0.272314	6.379099	0.038143	
0.769231	0.171024	0.859541	0.336848	0.273670	6.400741	0.038139	
0.773438	0.170860	0.853463	0.337511	0.275283	6.444636	0.037972	
0.777644	0.171102	0.857589	0.336886	0.273967	6.404782	0.038144	
0.780517	0.171060	0.865184	0.336108	0.272085	6.362339	0.038262	
0.781983	0.170827	0.865062	0.336339	0.272422	6.378878	0.038160	
0.784856	0.169841	0.864958	0.335775	0.272241	6.411678	0.037843	
0.789063	0.170786	0.866181	0.335702	0.271634	6.361967	0.038202	
0.793269	0.171067	0.865150	0.336411	0.272391	6.369215	0.038243	
0.796142	0.169960	0.859117	0.337054	0.274332	6.456387	0.037738	
0.797608	0.169301	0.855778	0.336614	0.274620	6.488317	0.037499	
0.800481	0.172082	0.851334	0.337799	0.275440	6.402519	0.038369	
0.804688	0.171597	0.859437	0.337404	0.274030	6.387755	0.038306	
0.808894	0.168467	0.868313	0.334988	0.271479	6.445880	0.037437	
0.811767	0.169885	0.866713	0.335268	0.271460	6.391639	0.037912	
0.813233	0.173715	0.860548	0.338282	0.273961	6.308300	0.039022	
0.816106	0.172752	0.867821	0.338190	0.273139	6.324407	0.038756	
0.820313	0.165627	0.860078	0.328401	0.267141	6.451639	0.036789	
0.824519	0.176019	0.864471	0.350791	0.285020	6.477034	0.039021	
0.827392	0.177033	0.853640	0.343274	0.278772	6.298743	0.039797	
0.828858	0.163499	0.796545	0.296058	0.244190	5.974117	0.037740	
0.831731	0.122911	0.027775	0.112204	0.112157	3.649999	0.036297	
0.835938	0.125811	0.000409	0.099193	0.099193	3.153729	0.039970	
0.840144	0.128636	0.076765	0.111518	0.111139	3.455918	0.039040	
0.843017	0.119495	-0.121413	0.083649	0.082768	2.770599	0.040503	
0.844483	0.123048	-0.030698	0.095633	0.095575	3.106912	0.039385	
0.847356	0.127450	0.043572	0.106690	0.106569	3.344637	0.039318	
0.851563	0.123867	-0.019466	0.097204	0.097180	3.138209	0.039449	
0.855769	0.125506	0.008220	0.101136	0.101132	3.223185	0.039441	
0.858642	0.125776	0.014713	0.102042	0.102028	3.244762	0.039394	
0.860108	0.124014	-0.017743	0.097778	0.097758	3.153135	0.039403	
0.862981	0.125031	0.000299	0.099959	0.099959	3.197905	0.039447	
0.867188	0.125086	0.001689	0.100264	0.100263	3.206234	0.039413	
0.871394	0.124874	-0.002234	0.099676	0.099676	3.192829	0.039428	
0.874267	0.125119	0.001670	0.100230	0.100229	3.204296	0.039435	
0.875733	0.125103	0.002137	0.100320	0.100320	3.207599	0.039410	
0.878606	0.124937	-0.001097	0.099839	0.099839	3.196455	0.039426	
0.882813	0.125022	0.000347	0.100051	0.100051	3.201095	0.039424	
0.887019	0.124999	0.000015	0.100002	0.100002	3.200094	0.039423	
0.889892	0.124967	-0.000592	0.099919	0.099919	3.198260	0.039424	
0.891358	0.125017	0.000291	0.100032	0.100032	3.200571	0.039426	
0.894231	0.125005	0.000102	0.100018	0.100018	3.200430	0.039423	
0.898438	0.124995	-0.000086	0.099987	0.099987	3.199700	0.039424	
0.902644	0.125004	0.000069	0.100010	0.100010	3.200218	0.039424	
0.905517	0.124999	-0.000001	0.100000	0.100000	3.200019	0.039424	
0.906983	0.124995	-0.000090	0.099987	0.099987	3.199712	0.039424	
0.909856	0.125002	0.000026	0.100004	0.100004	3.200077	0.039424	
0.914063	0.125000	-0.000004	0.099999	0.099999	3.199988	0.039424	
0.918269	0.125000	-0.000005	0.099999	0.099999	3.199983	0.039424	
0.921142	0.125001	0.000017	0.100002	0.100002	3.200049	0.039424	
0.922608	0.125000	-0.000002	0.100000	0.100000	3.200002	0.039424	
0.925481	0.125000	-0.000004	0.099999	0.099999	3.199983	0.039424	
0.929688	0.125000	0.000003	0.100000	0.100000	3.200009	0.039424	
0.933894	0.125000	-0.000001	0.100000	0.100000	3.199996	0.039424	
0.936767	0.125000	-0.000001	0.100000	0.100000	3.199996	0.039424	
0.938233	0.125000	0.000002	0.100000	0.100000	3.200007	0.039424	
0.941106	0.125000	-0.000000	0.100000	0.100000	3.199999	0.039424	
0.945313	0.125000	-0.000000	0.100000	0.100000	3.200000	0.039424	
0.949519	0.125000	0.000000	0.100000	0.100000	3.200001	0.039424	
0.952392	0.125000	-0.000000	0.100000	0.100000	3.199999	0.039424	
0.953858	0.125000	-0.000000	0.100000	0.100000	3.199999	0.039424	
0.956731	0.125000	0.000000	0.100000	0.100000	3.200001	0.039424	
0.960938	0.125000	-0.000000	0.100000	0.100000	3.200000	0.039424	
0.965144	0.125000	0.000000	0.100000	0.100000	3.200000	0.039424	
0.968017	0.125000	0.000000	0.100000	0.100000	3.200000	0.039424	
0.969483	0.125000	-0.000000	0.100000	0.100000	3.200000	0.039424	
0.972356	0.125000	-0.000000	0.100000	0.100000	3.200000	0.039424	
0.976563	0.125000	0.000000	0.100000	0.100000	3.200000	0.039424	
0.980769	0.125000	-0.000000	0.100000	0.100000	3.200000	0.039424	
0.983642	0.125000	0.000000	0.100000	0.100000	3.200000	0.039424	
0.985108	0.125000	0.000000	0.100000	0.100000	3.200000	0.039424	
0.987981	0.125000	-0.000000	0.100000	0.100000	3.200000	0.039424	
0.992188	0.125000	0.000000	0.100000	0.100000	3.200000	0.039424	
0.996394	0.125000	0.000000	0.100000	0.100000	3.200000	0.039424	
0.999267	0.125000	0.000000	0.100000	0.100000	3.200000	0.039424	
