TITLE = "DG1DFDX32-P5RK4w10000iv80"
VARIABLES = "x" "Density" "Velocity in x" "Energy" "Pressure" "Temperature" "Fugacity"
ZONE T = "Final Time 0.10"
I = 192, J = 1, K = 1, F = POINT

0.001055	0.828952	0.000003	0.908300	0.908300	4.024153	0.277686	
0.005294	0.828954	-0.000002	0.908305	0.908305	4.024168	0.277686	
0.011897	0.828953	-0.000001	0.908304	0.908304	4.024163	0.277686	
0.019353	0.828952	0.000003	0.908299	0.908299	4.024150	0.277686	
0.025956	0.828955	-0.000006	0.908310	0.908310	4.024181	0.277686	
0.030195	0.828954	-0.000003	0.908306	0.908306	4.024170	0.277686	
0.032305	0.828950	0.000008	0.908294	0.908294	4.024135	0.277686	
0.036544	0.828951	0.000007	0.908296	0.908296	4.024140	0.277686	
0.043147	0.828956	-0.000009	0.908313	0.908313	4.024189	0.277686	
0.050603	0.828951	0.000006	0.908297	0.908297	4.024143	0.277686	
0.057206	0.828950	0.000011	0.908292	0.908292	4.024126	0.277686	
0.061445	0.828963	-0.000030	0.908335	0.908335	4.024256	0.277686	
0.063555	0.828963	-0.000031	0.908336	0.908336	4.024257	0.277686	
0.067794	0.828948	0.000015	0.908288	0.908288	4.024115	0.277686	
0.074397	0.828948	0.000017	0.908285	0.908285	4.024107	0.277686	
0.081853	0.828967	-0.000042	0.908347	0.908347	4.024292	0.277686	
0.088456	0.828940	0.000041	0.908260	0.908260	4.024033	0.277686	
0.092695	0.828928	0.000077	0.908222	0.908222	4.023917	0.277686	
0.094805	0.828953	0.000000	0.908303	0.908303	4.024160	0.277686	
0.099044	0.828982	-0.000090	0.908398	0.908398	4.024443	0.277686	
0.105647	0.828943	0.000032	0.908269	0.908269	4.024060	0.277686	
0.113103	0.828931	0.000069	0.908230	0.908230	4.023944	0.277686	
0.119706	0.829017	-0.000196	0.908511	0.908511	4.024779	0.277686	
0.123945	0.828962	-0.000030	0.908334	0.908334	4.024252	0.277686	
0.126055	0.828892	0.000188	0.908103	0.908103	4.023572	0.277686	
0.130294	0.828886	0.000207	0.908083	0.908083	4.023508	0.277686	
0.136897	0.829023	-0.000217	0.908534	0.908534	4.024843	0.277686	
0.144353	0.828955	-0.000006	0.908309	0.908309	4.024183	0.277686	
0.150956	0.828799	0.000474	0.907800	0.907800	4.022664	0.277686	
0.155195	0.829029	-0.000230	0.908548	0.908548	4.024899	0.277686	
0.157305	0.829159	-0.000638	0.908980	0.908980	4.026156	0.277686	
0.161544	0.829079	-0.000388	0.908714	0.908714	4.025382	0.277686	
0.168147	0.828751	0.000626	0.907639	0.907639	4.022196	0.277686	
0.175603	0.829012	-0.000185	0.908500	0.908500	4.024735	0.277686	
0.182206	0.829285	-0.001022	0.909388	0.909388	4.027388	0.277686	
0.186445	0.828704	0.000759	0.907497	0.907497	4.021744	0.277686	
0.188555	0.828435	0.001611	0.906596	0.906595	4.019129	0.277686	
0.192794	0.828574	0.001166	0.907065	0.907065	4.020483	0.277686	
0.199397	0.829539	-0.001808	0.910228	0.910227	4.029852	0.277686	
0.206853	0.829223	-0.000836	0.909184	0.909184	4.026779	0.277686	
0.213456	0.827994	0.002963	0.905172	0.905169	4.014855	0.277686	
0.217695	0.828682	0.000853	0.907403	0.907403	4.021533	0.277686	
0.219805	0.829316	-0.001140	0.909512	0.909512	4.027687	0.277686	
0.224044	0.830354	-0.004333	0.912909	0.912901	4.037771	0.277686	
0.230647	0.828757	0.000622	0.907645	0.907645	4.022255	0.277686	
0.238103	0.821642	0.022614	0.884685	0.884475	3.953491	0.277686	
0.244706	0.812853	0.049787	0.857410	0.856403	3.869365	0.277686	
0.248945	0.806969	0.068011	0.839801	0.837934	3.813552	0.277686	
0.251055	0.803924	0.077436	0.830900	0.828490	3.784818	0.277686	
0.255294	0.797801	0.096359	0.813403	0.809700	3.727384	0.277686	
0.261897	0.788118	0.126304	0.786861	0.780575	3.637453	0.277686	
0.269353	0.777030	0.160609	0.758113	0.748091	3.535826	0.277686	
0.275956	0.767108	0.191293	0.733835	0.719800	3.446107	0.277686	
0.280195	0.760717	0.211061	0.718900	0.701956	3.388919	0.277686	
0.282305	0.757521	0.220949	0.711638	0.693147	3.360506	0.277686	
0.286544	0.751093	0.240830	0.697431	0.675650	3.303713	0.277686	
0.293147	0.741046	0.271914	0.676295	0.648899	3.215925	0.277686	
0.300603	0.729654	0.307145	0.653847	0.619430	3.117809	0.277686	
0.307206	0.719531	0.338446	0.635214	0.594005	3.031894	0.277686	
0.311445	0.713063	0.358574	0.623871	0.578030	2.977090	0.277716	
0.313555	0.709838	0.368614	0.618397	0.570172	2.949949	0.277731	
0.317794	0.703245	0.388845	0.607742	0.554576	2.896205	0.277686	
0.324397	0.693034	0.420405	0.592012	0.530769	2.812706	0.277686	
0.331853	0.681467	0.456202	0.575546	0.504633	2.719600	0.277686	
0.338456	0.671166	0.488057	0.562031	0.482095	2.638003	0.277686	
0.342695	0.664616	0.508505	0.553881	0.467954	2.585817	0.277747	
0.344805	0.661362	0.518705	0.549966	0.460994	2.559855	0.277792	
0.349044	0.654571	0.539396	0.542429	0.447206	2.509162	0.277686	
0.355647	0.644150	0.571626	0.531432	0.426192	2.429909	0.277686	
0.363103	0.632376	0.608044	0.520142	0.403242	2.341885	0.277686	
0.369706	0.621970	0.640341	0.511081	0.383565	2.264828	0.277731	
0.373945	0.615338	0.660996	0.505749	0.371324	2.216174	0.277777	
0.376055	0.612065	0.671277	0.503211	0.365309	2.191858	0.277837	
0.380294	0.605278	0.692080	0.498392	0.353436	2.144499	0.277762	
0.386897	0.594724	0.724532	0.491489	0.335390	2.071124	0.277701	
0.394353	0.582950	0.760959	0.484588	0.315807	1.989564	0.277731	
0.400956	0.572783	0.792527	0.479350	0.299468	1.920072	0.277792	
0.405195	0.566731	0.811456	0.476533	0.289948	1.878844	0.277867	
0.407305	0.563864	0.820438	0.475290	0.285516	1.859545	0.277898	
0.411544	0.557872	0.838907	0.472866	0.276561	1.820566	0.277867	
0.418147	0.550698	0.861102	0.470222	0.266051	1.774208	0.277852	
0.425603	0.548902	0.866440	0.469565	0.263530	1.763141	0.277807	
0.432206	0.551247	0.859461	0.470368	0.266773	1.777256	0.277898	
0.436445	0.551723	0.858031	0.470527	0.267433	1.780004	0.277928	
0.438555	0.552086	0.857029	0.470651	0.267897	1.782017	0.277958	
0.442794	0.552572	0.855751	0.470774	0.268447	1.784013	0.278064	
0.449397	0.551429	0.858993	0.470385	0.266944	1.777778	0.277958	
0.456853	0.549907	0.863852	0.469699	0.264518	1.766362	0.278109	
0.463456	0.551216	0.860031	0.470095	0.266241	1.773643	0.278215	
0.467695	0.552769	0.855189	0.470744	0.268611	1.784467	0.278139	
0.469805	0.553245	0.853630	0.470994	0.269424	1.788357	0.278064	
0.474044	0.553425	0.853728	0.471024	0.269341	1.787069	0.278290	
0.480647	0.551166	0.859882	0.470229	0.266464	1.775431	0.278018	
0.488103	0.550052	0.861908	0.469961	0.265649	1.773784	0.277505	
0.494706	0.551970	0.856037	0.470768	0.268526	1.786835	0.277444	
0.498945	0.551978	0.855769	0.470831	0.268713	1.788037	0.277339	
0.501055	0.552032	0.855484	0.470854	0.268851	1.788881	0.277293	
0.505294	0.551236	0.857652	0.470480	0.267744	1.784054	0.277263	
0.511897	0.549222	0.863367	0.469657	0.264961	1.772017	0.277173	
0.519353	0.549846	0.861983	0.469681	0.265409	1.772781	0.277475	
0.525956	0.551986	0.856139	0.470423	0.268127	1.783990	0.277716	
0.530195	0.551497	0.857851	0.470332	0.267406	1.780665	0.277731	
0.532305	0.552306	0.856359	0.470496	0.267979	1.781804	0.278109	
0.536544	0.551690	0.857646	0.470401	0.267501	1.780765	0.277837	
0.543147	0.550214	0.862517	0.469637	0.264975	1.768495	0.278094	
0.550603	0.551969	0.858583	0.470634	0.267188	1.777512	0.278305	
0.557206	0.552261	0.852423	0.470547	0.269904	1.795315	0.276840	
0.561445	0.547460	0.858639	0.468633	0.266823	1.791550	0.274333	
0.563555	0.548976	0.856696	0.469097	0.267642	1.791644	0.275224	
0.567794	0.547722	0.857493	0.468411	0.267042	1.792102	0.274439	
0.574397	0.555985	0.862675	0.471819	0.264935	1.747217	0.283592	
0.581853	0.483765	0.860657	0.447010	0.267840	2.066821	0.218551	
0.588456	0.334383	0.857127	0.395123	0.272294	3.135213	0.115115	
0.592695	0.240700	0.874131	0.359460	0.267500	4.342682	0.068290	
0.594805	0.212536	0.873504	0.347836	0.266753	4.925757	0.056161	
0.599044	0.181469	0.872514	0.334665	0.265591	5.765984	0.043956	
0.605647	0.167633	0.859651	0.329605	0.267665	6.302332	0.038700	
0.613103	0.165644	0.857937	0.328626	0.267664	6.379563	0.037990	
0.619706	0.164623	0.870120	0.326874	0.264556	6.345338	0.037854	
0.623945	0.163866	0.874204	0.326745	0.264129	6.366094	0.037612	
0.626055	0.163346	0.872855	0.327297	0.265073	6.405717	0.037371	
0.630294	0.163997	0.860875	0.329418	0.268648	6.467029	0.037341	
0.636897	0.166428	0.842258	0.331053	0.272021	6.450130	0.037960	
0.644353	0.166196	0.851801	0.329347	0.269054	6.392434	0.038081	
0.650956	0.163679	0.874347	0.328050	0.265485	6.406604	0.037446	
0.655195	0.163845	0.871250	0.328871	0.266686	6.424626	0.037431	
0.657305	0.164552	0.865290	0.329226	0.267623	6.419508	0.037612	
0.661544	0.165636	0.855795	0.329225	0.268570	6.398772	0.037930	
0.668147	0.166553	0.859329	0.328859	0.267364	6.336433	0.038337	
0.675603	0.164521	0.875543	0.328296	0.265237	6.367201	0.037764	
0.682206	0.164371	0.863340	0.328794	0.267537	6.425458	0.037552	
0.686445	0.165786	0.845609	0.329589	0.270315	6.435364	0.037854	
0.688555	0.166537	0.841257	0.329790	0.270860	6.418685	0.038081	
0.692794	0.167914	0.842201	0.329863	0.270312	6.352371	0.038609	
0.699397	0.165436	0.865046	0.329354	0.267456	6.383359	0.037930	
0.706853	0.163488	0.871834	0.327452	0.265319	6.406773	0.037401	
0.713456	0.165882	0.853550	0.327241	0.266815	6.348670	0.038141	
0.717695	0.167473	0.850157	0.327273	0.266752	6.285511	0.038715	
0.719805	0.167377	0.853170	0.327089	0.266173	6.278281	0.038715	
0.724044	0.164854	0.865490	0.326941	0.265197	6.353297	0.037884	
0.730647	0.162354	0.869527	0.325937	0.264561	6.434157	0.037054	
0.738103	0.166632	0.851980	0.327762	0.267285	6.332778	0.038368	
0.744706	0.168489	0.841279	0.331087	0.271463	6.357188	0.038730	
0.748945	0.165598	0.847856	0.330216	0.270696	6.455841	0.037748	
0.751055	0.162903	0.859320	0.327843	0.267697	6.488029	0.037023	
0.755294	0.161136	0.864690	0.325089	0.264849	6.491890	0.036600	
0.761897	0.167157	0.861249	0.327565	0.265570	6.271363	0.038685	
0.769353	0.167238	0.859109	0.328760	0.267043	6.301355	0.038609	
0.775956	0.161668	0.857895	0.326502	0.267009	6.524266	0.036631	
0.780195	0.160398	0.874246	0.323950	0.262654	6.468911	0.036495	
0.782305	0.162523	0.872731	0.324942	0.263048	6.391614	0.037220	
0.786544	0.169939	0.859196	0.330101	0.267375	6.209980	0.039546	
0.793147	0.167135	0.855673	0.330181	0.268995	6.351575	0.038428	
0.800603	0.161260	0.847428	0.329975	0.272072	6.667209	0.036132	
0.807206	0.165935	0.861756	0.329787	0.268174	6.382229	0.038050	
0.811445	0.172072	0.886738	0.328700	0.261050	5.983166	0.040830	
0.813555	0.176294	0.870080	0.338184	0.271453	6.073429	0.041540	
0.817794	0.159538	0.828836	0.313803	0.259004	6.410109	0.036465	
0.824397	0.165275	0.926311	0.355529	0.284621	6.802296	0.036676	
0.831853	0.146329	0.518238	0.207427	0.187777	5.068458	0.037643	
0.838456	0.114091	-0.247453	0.062428	0.058935	2.033920	0.046615	
0.842695	0.118403	0.036778	0.114010	0.113930	3.802356	0.035105	
0.844805	0.142601	0.276546	0.139731	0.134278	3.709945	0.043035	
0.849044	0.114137	-0.091947	0.090629	0.090147	3.117700	0.037431	
0.855647	0.123449	0.025479	0.100571	0.100531	3.212260	0.039954	
0.863103	0.121514	0.008096	0.100750	0.100746	3.271681	0.038942	
0.869706	0.119809	-0.028496	0.093962	0.093913	3.093499	0.039501	
0.873945	0.125056	0.047064	0.105767	0.105628	3.333104	0.039727	
0.876055	0.121906	0.021750	0.102513	0.102484	3.317841	0.038791	
0.880294	0.120066	-0.023169	0.095008	0.094976	3.120701	0.039410	
0.886897	0.121971	0.010251	0.099990	0.099983	3.234967	0.039319	
0.894353	0.121107	-0.005131	0.097895	0.097893	3.189334	0.039319	
0.900956	0.121430	0.001020	0.098669	0.098668	3.206352	0.039319	
0.905195	0.121988	0.010566	0.100014	0.100007	3.235883	0.039319	
0.907305	0.120966	-0.007423	0.097646	0.097643	3.184263	0.039304	
0.911544	0.121302	-0.001476	0.098351	0.098350	3.199586	0.039319	
0.918147	0.121472	0.001598	0.098775	0.098775	3.208578	0.039319	
0.925603	0.121310	-0.001348	0.098377	0.098377	3.200013	0.039319	
0.932206	0.121456	0.001312	0.098734	0.098734	3.207740	0.039319	
0.936445	0.121393	0.000145	0.098578	0.098578	3.204377	0.039319	
0.938555	0.121260	-0.002220	0.098262	0.098262	3.197395	0.039319	
0.942794	0.121417	0.000589	0.098637	0.098637	3.205670	0.039319	
0.949397	0.121379	-0.000090	0.098546	0.098546	3.203647	0.039319	
0.956853	0.121381	-0.000060	0.098550	0.098550	3.203757	0.039319	
0.963456	0.121397	0.000228	0.098588	0.098588	3.204585	0.039319	
0.967695	0.121363	-0.000373	0.098509	0.098509	3.202833	0.039319	
0.969805	0.121373	-0.000200	0.098531	0.098531	3.203349	0.039319	
0.974044	0.121395	0.000193	0.098584	0.098584	3.204485	0.039319	
0.980647	0.121379	-0.000085	0.098547	0.098547	3.203675	0.039319	
0.988103	0.121386	0.000042	0.098563	0.098563	3.204042	0.039319	
0.994706	0.121384	0.000001	0.098558	0.098558	3.203918	0.039319	
0.998945	0.121378	-0.000095	0.098545	0.098545	3.203631	0.039319	
