TITLE = "DG1DFDX32-P5RK4w10iv80"
VARIABLES = "x" "Density" "Velocity in x" "Energy" "Pressure" "Temperature" "Fugacity"
ZONE T = "Final Time 0.10"
I = 192, J = 1, K = 1, F = POINT

0.001055	0.837289	0.000964	0.910767	0.910766	3.989641	0.282444	
0.005294	0.837306	0.000941	0.910939	0.910939	3.990530	0.282414	
0.011897	0.837299	0.001069	0.910833	0.910833	3.990095	0.282429	
0.019353	0.837205	0.001636	0.909853	0.909852	3.985970	0.282565	
0.025956	0.837123	0.002099	0.909039	0.909038	3.982685	0.282671	
0.030195	0.837123	0.002104	0.909053	0.909052	3.982687	0.282671	
0.032305	0.837129	0.002078	0.909110	0.909108	3.983099	0.282656	
0.036544	0.837128	0.002091	0.909094	0.909092	3.983089	0.282656	
0.043147	0.837008	0.002713	0.907982	0.907978	3.978728	0.282792	
0.050603	0.836800	0.003767	0.906109	0.906104	3.971044	0.283033	
0.057206	0.836738	0.004075	0.905576	0.905569	3.969030	0.283094	
0.061445	0.836751	0.004011	0.905685	0.905679	3.969511	0.283079	
0.063555	0.836737	0.004083	0.905558	0.905551	3.969018	0.283094	
0.067794	0.836621	0.004653	0.904586	0.904577	3.965070	0.283214	
0.074397	0.836290	0.006247	0.901910	0.901894	3.954478	0.283532	
0.081853	0.836033	0.007470	0.899881	0.899858	3.946394	0.283773	
0.088456	0.836015	0.007559	0.899736	0.899712	3.945873	0.283788	
0.092695	0.835902	0.008095	0.898870	0.898842	3.942681	0.283879	
0.094805	0.835778	0.008663	0.897964	0.897932	3.939050	0.283985	
0.099044	0.835395	0.010402	0.895229	0.895184	3.928413	0.284287	
0.105647	0.834881	0.012719	0.891619	0.891551	3.914487	0.284680	
0.113103	0.834696	0.013566	0.890301	0.890224	3.909612	0.284816	
0.119706	0.834448	0.014663	0.888653	0.888563	3.903116	0.284997	
0.123945	0.833906	0.017002	0.885193	0.885073	3.890071	0.285344	
0.126055	0.833580	0.018390	0.883167	0.883026	3.882199	0.285556	
0.130294	0.832956	0.021029	0.879343	0.879159	3.867794	0.285933	
0.136897	0.832509	0.022952	0.876539	0.876320	3.857133	0.286220	
0.144353	0.832163	0.024427	0.874446	0.874198	3.849150	0.286432	
0.150956	0.830998	0.029149	0.867973	0.867620	3.824828	0.287036	
0.155195	0.829919	0.033457	0.862170	0.861705	3.803137	0.287565	
0.157305	0.829477	0.035216	0.859822	0.859307	3.794402	0.287776	
0.161544	0.828970	0.037261	0.857066	0.856490	3.784102	0.288033	
0.168147	0.828552	0.038995	0.854712	0.854082	3.774973	0.288275	
0.175603	0.827032	0.044824	0.847327	0.846497	3.747949	0.288879	
0.182206	0.824598	0.053991	0.835970	0.834768	3.705752	0.289815	
0.186445	0.823527	0.058009	0.831050	0.829665	3.687754	0.290208	
0.188555	0.823222	0.059181	0.829597	0.828155	3.682130	0.290344	
0.192794	0.822918	0.060438	0.827974	0.826471	3.675887	0.290510	
0.199397	0.821380	0.066062	0.821399	0.819607	3.651653	0.291008	
0.206853	0.817741	0.078966	0.806846	0.804296	3.598388	0.292021	
0.213456	0.815086	0.088398	0.796363	0.793179	3.559634	0.292776	
0.217695	0.814549	0.090417	0.794046	0.790716	3.550660	0.292987	
0.219805	0.814243	0.091559	0.792756	0.789343	3.545538	0.293108	
0.224044	0.812967	0.096006	0.788033	0.784287	3.528049	0.293425	
0.230647	0.808798	0.109944	0.773925	0.769037	3.476674	0.294196	
0.238103	0.804111	0.125612	0.758386	0.752043	3.418871	0.295102	
0.244706	0.802496	0.131239	0.752736	0.745825	3.397007	0.295525	
0.248945	0.801257	0.135423	0.748717	0.741370	3.381903	0.295766	
0.251055	0.800047	0.139311	0.745155	0.737392	3.368534	0.295933	
0.255294	0.796285	0.151151	0.734663	0.725567	3.329827	0.296310	
0.261897	0.790370	0.169778	0.718521	0.707130	3.269126	0.296930	
0.269353	0.786999	0.180721	0.709019	0.696168	3.231683	0.297458	
0.275956	0.784489	0.188688	0.702447	0.688482	3.205940	0.297745	
0.280195	0.780147	0.201720	0.692423	0.676551	3.167861	0.297896	
0.282305	0.777526	0.209473	0.686654	0.669595	3.145819	0.297942	
0.286544	0.772399	0.224702	0.675506	0.656006	3.102368	0.298062	
0.293147	0.768022	0.238152	0.665574	0.643794	3.061607	0.298395	
0.300603	0.764809	0.247967	0.658598	0.635085	3.032713	0.298591	
0.307206	0.757162	0.269768	0.644692	0.617141	2.977142	0.298304	
0.311445	0.750449	0.288689	0.633217	0.601945	2.930029	0.297972	
0.313555	0.747749	0.296299	0.628713	0.595889	2.910956	0.297851	
0.317794	0.744628	0.305494	0.623113	0.588366	2.886458	0.297866	
0.324397	0.741699	0.314331	0.617746	0.581105	2.861858	0.297987	
0.331853	0.733193	0.337415	0.605785	0.564048	2.810852	0.297081	
0.338456	0.721402	0.369290	0.590386	0.541195	2.741870	0.295736	
0.342695	0.716954	0.381453	0.584689	0.532528	2.715108	0.295283	
0.344805	0.715689	0.384989	0.582983	0.529944	2.706697	0.295208	
0.349044	0.714208	0.389571	0.580628	0.526432	2.694354	0.295283	
0.355647	0.706841	0.408856	0.572743	0.513664	2.657206	0.294075	
0.363103	0.692236	0.446308	0.558936	0.489993	2.590263	0.291235	
0.369706	0.683987	0.468057	0.551238	0.476315	2.549244	0.289845	
0.373945	0.682698	0.471789	0.549754	0.473774	2.540538	0.289785	
0.376055	0.681329	0.475330	0.548563	0.471594	2.534117	0.289528	
0.380294	0.675898	0.488958	0.544495	0.463698	2.512539	0.288244	
0.386897	0.661801	0.523449	0.535323	0.444656	2.463201	0.284438	
0.394353	0.649516	0.553924	0.527795	0.428149	2.418669	0.281206	
0.400956	0.646679	0.561465	0.525813	0.423882	2.405416	0.280662	
0.405195	0.641999	0.572844	0.523397	0.418061	2.390631	0.279272	
0.407305	0.637568	0.582900	0.521603	0.413289	2.380719	0.277671	
0.411544	0.626785	0.607951	0.517360	0.401529	2.355133	0.273865	
0.418147	0.614214	0.637791	0.512610	0.387686	2.323298	0.269545	
0.425603	0.608821	0.650389	0.510688	0.381921	2.310046	0.267657	
0.432206	0.601513	0.667113	0.508646	0.374798	2.296336	0.264802	
0.436445	0.590212	0.692226	0.506149	0.364741	2.280560	0.260014	
0.438555	0.583631	0.706046	0.505074	0.359604	2.275539	0.256947	
0.442794	0.575202	0.724906	0.503517	0.352385	2.264803	0.253307	
0.449397	0.570633	0.735457	0.502550	0.348223	2.257208	0.251449	
0.456853	0.562448	0.752062	0.501651	0.342591	2.255689	0.247341	
0.463456	0.545674	0.787455	0.500126	0.330943	2.251077	0.239064	
0.467695	0.535431	0.808203	0.499531	0.324661	2.253876	0.233701	
0.469805	0.530820	0.817064	0.499351	0.322165	2.257691	0.231149	
0.474044	0.529231	0.820507	0.499180	0.321032	2.256946	0.230393	
0.480647	0.524611	0.829459	0.498960	0.318493	2.260408	0.227871	
0.488103	0.505077	0.866462	0.498613	0.309018	2.285058	0.216784	
0.494706	0.490009	0.895155	0.498447	0.302124	2.308402	0.208190	
0.498945	0.487831	0.898069	0.498412	0.301688	2.316440	0.206724	
0.501055	0.484479	0.904020	0.498371	0.300400	2.323912	0.204731	
0.505294	0.482289	0.908129	0.498335	0.299463	2.327944	0.203477	
0.511897	0.467015	0.933932	0.498166	0.294494	2.370517	0.194172	
0.519353	0.446896	0.968227	0.497809	0.288334	2.434072	0.182028	
0.525956	0.441547	0.975885	0.497576	0.287321	2.457279	0.178630	
0.530195	0.439468	0.977972	0.497391	0.287231	2.469093	0.177210	
0.532305	0.434598	0.986005	0.497204	0.285945	2.487670	0.174280	
0.536544	0.423753	1.002604	0.496593	0.283612	2.535631	0.167634	
0.543147	0.405847	1.027784	0.495023	0.280667	2.628553	0.156622	
0.550603	0.396228	1.041246	0.494059	0.279265	2.683958	0.150777	
0.557206	0.390332	1.047153	0.493023	0.279018	2.724824	0.147076	
0.561445	0.381015	1.057955	0.491415	0.278185	2.788134	0.141427	
0.563555	0.373982	1.067451	0.490311	0.277243	2.834657	0.137318	
0.567794	0.361727	1.081321	0.487750	0.276275	2.926453	0.130129	
0.574397	0.352907	1.089810	0.485600	0.276028	3.002199	0.124933	
0.581853	0.345819	1.095861	0.483551	0.275902	3.066148	0.120824	
0.588456	0.331781	1.106385	0.478699	0.275634	3.200915	0.112879	
0.592695	0.320097	1.115029	0.474404	0.275417	3.321212	0.106475	
0.594805	0.315229	1.118817	0.472587	0.275293	3.373702	0.103862	
0.599044	0.309694	1.121431	0.470134	0.275397	3.438890	0.100871	
0.605647	0.305542	1.122304	0.468099	0.275674	3.491636	0.098620	
0.613103	0.291943	1.125219	0.460602	0.275784	3.664047	0.091566	
0.619706	0.276893	1.126294	0.451579	0.275954	3.875407	0.084029	
0.623945	0.270925	1.125264	0.447647	0.276122	3.966416	0.081114	
0.626055	0.269297	1.124853	0.446530	0.276160	3.991751	0.080328	
0.630294	0.267492	1.123888	0.445200	0.276262	4.021131	0.079452	
0.636897	0.258598	1.117972	0.437876	0.276270	4.166115	0.075253	
0.644353	0.243604	1.105138	0.424778	0.276018	4.427526	0.068456	
0.650956	0.236038	1.096032	0.417647	0.275873	4.571459	0.065133	
0.655195	0.234443	1.092748	0.415798	0.275824	4.603392	0.064438	
0.657305	0.233139	1.090581	0.414365	0.275721	4.628863	0.063879	
0.661544	0.228674	1.082391	0.409293	0.275338	4.714569	0.062007	
0.668147	0.217130	1.056709	0.395191	0.273964	4.949750	0.057279	
0.675603	0.209036	1.035488	0.384847	0.272779	5.124886	0.054077	
0.682206	0.206468	1.026415	0.380930	0.272170	5.176662	0.053110	
0.686445	0.203633	1.015687	0.376359	0.271323	5.234659	0.052053	
0.688555	0.201118	1.006391	0.372433	0.270584	5.288251	0.051116	
0.692794	0.194859	0.980874	0.362246	0.268507	5.418789	0.048850	
0.699397	0.187956	0.948780	0.350400	0.265803	5.565377	0.046418	
0.706853	0.185489	0.935176	0.345609	0.264499	5.613290	0.045588	
0.713456	0.181834	0.912441	0.337763	0.262070	5.678900	0.044394	
0.717695	0.177255	0.883150	0.328117	0.258991	5.759633	0.042929	
0.719805	0.174917	0.867377	0.323113	0.257314	5.797352	0.042204	
0.724044	0.171126	0.839701	0.314591	0.254261	5.858404	0.041041	
0.730647	0.169337	0.824804	0.310066	0.252465	5.878799	0.040528	
0.738103	0.166766	0.801230	0.302875	0.249345	5.901044	0.039818	
0.744706	0.161619	0.752827	0.288908	0.243109	5.939213	0.038428	
0.748945	0.158326	0.719506	0.279739	0.238757	5.952253	0.037582	
0.751055	0.157323	0.708585	0.276761	0.237266	5.956071	0.037325	
0.755294	0.156441	0.697893	0.273767	0.235669	5.950365	0.037129	
0.761897	0.155341	0.683374	0.269597	0.233325	5.932672	0.036918	
0.769353	0.151244	0.631657	0.255729	0.225556	5.893544	0.036042	
0.775956	0.147507	0.581119	0.242779	0.217873	5.837502	0.035301	
0.780195	0.146429	0.564722	0.238535	0.215187	5.805647	0.035135	
0.782305	0.146204	0.560734	0.237427	0.214442	5.797568	0.035105	
0.786544	0.145818	0.553635	0.235423	0.213075	5.771879	0.035090	
0.793147	0.143392	0.514454	0.225380	0.206405	5.690848	0.034743	
0.800603	0.139916	0.455729	0.210930	0.196400	5.549472	0.034320	
0.807206	0.138413	0.427702	0.204006	0.191346	5.463697	0.034214	
0.811445	0.138100	0.420473	0.202024	0.189817	5.434343	0.034229	
0.813555	0.137789	0.414093	0.200383	0.188570	5.409904	0.034229	
0.817794	0.136702	0.392541	0.195055	0.184523	5.334052	0.034199	
0.824397	0.134196	0.341637	0.182847	0.175016	5.153622	0.034153	
0.831853	0.132530	0.305394	0.174196	0.168016	5.009113	0.034214	
0.838456	0.131961	0.291299	0.170611	0.165012	4.944822	0.034289	
0.842695	0.131356	0.276841	0.167052	0.162019	4.874427	0.034380	
0.844805	0.130863	0.265286	0.164294	0.159690	4.821320	0.034440	
0.849044	0.129675	0.237075	0.157639	0.153994	4.693945	0.034592	
0.855647	0.128336	0.203844	0.149813	0.147147	4.531590	0.034848	
0.863103	0.127803	0.189356	0.146250	0.143959	4.452450	0.035014	
0.869706	0.127199	0.172865	0.142208	0.140308	4.358990	0.035226	
0.873945	0.126480	0.153541	0.137621	0.136130	4.252696	0.035468	
0.876055	0.126109	0.143418	0.135228	0.133931	4.196313	0.035604	
0.880294	0.125481	0.125918	0.131075	0.130081	4.096812	0.035860	
0.886897	0.125117	0.115186	0.128452	0.127622	4.029900	0.036057	
0.894353	0.124813	0.105913	0.126127	0.125427	3.968098	0.036253	
0.900956	0.124207	0.087832	0.121722	0.121243	3.854167	0.036616	
0.905195	0.123775	0.074745	0.118546	0.118200	3.772563	0.036887	
0.907305	0.123630	0.070250	0.117441	0.117136	3.742772	0.036993	
0.911544	0.123476	0.065338	0.116205	0.115942	3.706884	0.037129	
0.918147	0.123400	0.062748	0.115513	0.115270	3.687665	0.037205	
0.925603	0.123085	0.052621	0.112934	0.112764	3.617191	0.037477	
0.932206	0.122714	0.040562	0.109865	0.109764	3.531342	0.037824	
0.936445	0.122577	0.036023	0.108678	0.108599	3.498913	0.037960	
0.938555	0.122552	0.035207	0.108447	0.108371	3.492095	0.037990	
0.942794	0.122545	0.035007	0.108347	0.108271	3.488954	0.038005	
0.949397	0.122451	0.032048	0.107493	0.107430	3.462142	0.038126	
0.956853	0.122212	0.024242	0.105304	0.105269	3.401234	0.038398	
0.963456	0.122064	0.019742	0.103927	0.103903	3.359489	0.038594	
0.967695	0.122043	0.019610	0.103725	0.103702	3.353182	0.038624	
0.969805	0.122037	0.019805	0.103680	0.103656	3.352856	0.038624	
0.974044	0.122010	0.019911	0.103472	0.103448	3.346304	0.038655	
0.980647	0.121877	0.017409	0.102261	0.102243	3.311214	0.038821	
0.988103	0.121701	0.015119	0.100719	0.100705	3.264457	0.039047	
0.994706	0.121586	0.016617	0.099942	0.099926	3.243637	0.039138	
0.998945	0.121512	0.018913	0.099563	0.099542	3.232403	0.039183	
