TITLE = "DG1DFDX64-P3RK4w10000iv80"
VARIABLES = "x" "Density" "Velocity in x" "Energy" "Pressure" "Temperature" "Fugacity"
ZONE T = "Final Time 0.10"
I = 256, J = 1, K = 1, F = POINT

0.001085	0.830785	0.000000	0.909390	0.909390	4.019079	0.278623	
0.005156	0.830785	-0.000000	0.909390	0.909390	4.019079	0.278623	
0.010469	0.830785	-0.000000	0.909390	0.909390	4.019079	0.278623	
0.014540	0.830785	0.000000	0.909390	0.909390	4.019079	0.278623	
0.016710	0.830785	0.000000	0.909390	0.909390	4.019079	0.278623	
0.020781	0.830785	-0.000000	0.909390	0.909390	4.019079	0.278623	
0.026094	0.830785	-0.000000	0.909390	0.909390	4.019079	0.278623	
0.030165	0.830785	0.000000	0.909390	0.909390	4.019079	0.278623	
0.032335	0.830785	0.000000	0.909390	0.909390	4.019079	0.278623	
0.036406	0.830785	-0.000000	0.909390	0.909390	4.019079	0.278623	
0.041719	0.830785	0.000000	0.909390	0.909390	4.019079	0.278623	
0.045790	0.830785	0.000000	0.909390	0.909390	4.019079	0.278623	
0.047960	0.830785	-0.000000	0.909390	0.909390	4.019079	0.278623	
0.052031	0.830785	-0.000000	0.909390	0.909390	4.019080	0.278623	
0.057344	0.830785	0.000000	0.909390	0.909390	4.019079	0.278623	
0.061415	0.830785	0.000000	0.909389	0.909389	4.019079	0.278623	
0.063585	0.830785	-0.000000	0.909390	0.909390	4.019080	0.278623	
0.067656	0.830785	-0.000000	0.909390	0.909390	4.019080	0.278623	
0.072969	0.830785	0.000000	0.909389	0.909389	4.019079	0.278623	
0.077040	0.830785	0.000001	0.909389	0.909389	4.019078	0.278623	
0.079210	0.830785	-0.000000	0.909390	0.909390	4.019080	0.278623	
0.083281	0.830785	-0.000001	0.909390	0.909390	4.019081	0.278623	
0.088594	0.830785	0.000001	0.909389	0.909389	4.019077	0.278623	
0.092665	0.830785	0.000001	0.909388	0.909388	4.019075	0.278623	
0.094835	0.830785	-0.000001	0.909390	0.909390	4.019082	0.278623	
0.098906	0.830786	-0.000002	0.909392	0.909392	4.019085	0.278623	
0.104219	0.830785	0.000002	0.909388	0.909388	4.019074	0.278623	
0.108290	0.830784	0.000004	0.909385	0.909385	4.019065	0.278623	
0.110460	0.830786	-0.000001	0.909391	0.909391	4.019084	0.278623	
0.114531	0.830787	-0.000006	0.909396	0.909396	4.019097	0.278623	
0.119844	0.830784	0.000003	0.909386	0.909386	4.019070	0.278623	
0.123915	0.830781	0.000014	0.909375	0.909375	4.019036	0.278623	
0.126085	0.830785	0.000001	0.909389	0.909389	4.019077	0.278623	
0.130156	0.830790	-0.000015	0.909406	0.909406	4.019127	0.278623	
0.135469	0.830785	-0.000000	0.909390	0.909390	4.019080	0.278623	
0.139540	0.830772	0.000039	0.909348	0.909348	4.018957	0.278623	
0.141710	0.830778	0.000021	0.909368	0.909368	4.019016	0.278623	
0.145781	0.830796	-0.000033	0.909424	0.909424	4.019181	0.278623	
0.151094	0.830795	-0.000031	0.909423	0.909423	4.019179	0.278623	
0.155165	0.830758	0.000083	0.909301	0.909301	4.018816	0.278623	
0.157335	0.830753	0.000099	0.909284	0.909284	4.018768	0.278623	
0.161406	0.830793	-0.000025	0.909417	0.909417	4.019158	0.278623	
0.166719	0.830835	-0.000154	0.909553	0.909553	4.019565	0.278623	
0.170790	0.830767	0.000056	0.909330	0.909330	4.018904	0.278623	
0.172960	0.830701	0.000258	0.909115	0.909115	4.018267	0.278623	
0.177031	0.830730	0.000170	0.909209	0.909209	4.018546	0.278623	
0.182344	0.830898	-0.000348	0.909760	0.909760	4.020170	0.278623	
0.186415	0.830928	-0.000435	0.909852	0.909852	4.020458	0.278623	
0.188585	0.830759	0.000079	0.909305	0.909305	4.018824	0.278623	
0.192656	0.830557	0.000705	0.908641	0.908641	4.016871	0.278623	
0.197969	0.830717	0.000205	0.909173	0.909173	4.018424	0.278623	
0.202040	0.831232	-0.001371	0.910849	0.910848	4.023404	0.278623	
0.204210	0.831316	-0.001638	0.911133	0.911132	4.024214	0.278623	
0.208281	0.830898	-0.000347	0.909758	0.909758	4.020176	0.278623	
0.213594	0.830109	0.002082	0.907180	0.907178	4.012545	0.278623	
0.217665	0.830264	0.001600	0.907694	0.907693	4.014041	0.278623	
0.219835	0.830897	-0.000345	0.909757	0.909757	4.020164	0.278623	
0.223906	0.831870	-0.003347	0.912956	0.912952	4.029584	0.278623	
0.229219	0.831453	-0.002047	0.911567	0.911565	4.025544	0.278623	
0.233290	0.828772	0.006207	0.902808	0.902792	3.999622	0.278623	
0.235460	0.826693	0.012638	0.896065	0.895999	3.979583	0.278623	
0.239531	0.821937	0.027291	0.880945	0.880639	3.933923	0.278623	
0.244844	0.814772	0.049401	0.858804	0.857810	3.865636	0.278623	
0.248915	0.809043	0.067075	0.841662	0.839842	3.811470	0.278623	
0.251085	0.805913	0.076721	0.832509	0.830137	3.782033	0.278623	
0.255156	0.799995	0.094978	0.815588	0.811979	3.726690	0.278623	
0.260469	0.792159	0.119151	0.793979	0.788356	3.654050	0.278623	
0.264540	0.786092	0.137870	0.777849	0.770378	3.598286	0.278623	
0.266710	0.782838	0.147903	0.769416	0.760853	3.568564	0.278623	
0.270781	0.776711	0.166801	0.753933	0.743128	3.512922	0.278623	
0.276094	0.768679	0.191585	0.734416	0.720309	3.440637	0.278623	
0.280165	0.762498	0.210652	0.719990	0.703073	3.385527	0.278623	
0.282335	0.759195	0.220840	0.712489	0.693976	3.356263	0.278623	
0.286406	0.752982	0.239996	0.698763	0.677078	3.301555	0.278623	
0.291719	0.744854	0.265079	0.681556	0.655387	3.230662	0.278623	
0.295790	0.738625	0.284346	0.668889	0.639029	3.176566	0.278638	
0.297960	0.735271	0.294642	0.662329	0.630413	3.148069	0.278623	
0.302031	0.728998	0.313982	0.650352	0.614418	3.094580	0.278623	
0.307344	0.720808	0.339257	0.635421	0.593940	3.025437	0.278623	
0.311415	0.714534	0.358659	0.624476	0.578518	2.972728	0.278638	
0.313585	0.711161	0.369017	0.618830	0.570410	2.945001	0.278623	
0.317656	0.704852	0.388465	0.608548	0.555365	2.892975	0.278623	
0.322969	0.696621	0.413866	0.595795	0.536135	2.825808	0.278623	
0.327040	0.690336	0.433346	0.586487	0.521668	2.774542	0.278653	
0.329210	0.686931	0.443762	0.581704	0.514067	2.747741	0.278623	
0.333281	0.680589	0.463314	0.573013	0.499965	2.697234	0.278623	
0.338594	0.672323	0.488819	0.562292	0.481968	2.632119	0.278623	
0.342665	0.666025	0.508382	0.554500	0.468432	2.582330	0.278668	
0.344835	0.662625	0.518832	0.550512	0.461327	2.556266	0.278653	
0.348906	0.656215	0.538507	0.543296	0.448149	2.507500	0.278623	
0.354219	0.647904	0.564145	0.534438	0.431337	2.444389	0.278623	
0.358290	0.641616	0.583753	0.528043	0.418722	2.396082	0.278698	
0.360460	0.638216	0.594243	0.524777	0.412092	2.370753	0.278698	
0.364531	0.631719	0.614052	0.518908	0.399810	2.323788	0.278623	
0.369844	0.623402	0.639790	0.511753	0.384163	2.262592	0.278653	
0.373915	0.617082	0.659468	0.506650	0.372466	2.216137	0.278713	
0.376085	0.613686	0.669988	0.504054	0.366317	2.191611	0.278728	
0.380156	0.607210	0.689804	0.499429	0.354964	2.146384	0.278668	
0.385469	0.598894	0.715516	0.493829	0.340524	2.087614	0.278698	
0.389540	0.592571	0.735097	0.489894	0.329791	2.043395	0.278728	
0.391710	0.589253	0.745468	0.487905	0.324174	2.019834	0.278789	
0.395781	0.582881	0.765006	0.484407	0.313846	1.976929	0.278743	
0.401094	0.574635	0.790423	0.480225	0.300718	1.921390	0.278743	
0.405165	0.568429	0.809613	0.477348	0.291053	1.879944	0.278759	
0.407335	0.565267	0.819639	0.475907	0.286031	1.857727	0.278879	
0.411406	0.559083	0.838578	0.473408	0.276831	1.817965	0.278819	
0.416719	0.552354	0.859219	0.470922	0.267032	1.774954	0.278774	
0.420790	0.549909	0.866776	0.470055	0.263481	1.759113	0.278789	
0.422960	0.550075	0.866432	0.470078	0.263606	1.759375	0.278864	
0.427031	0.551278	0.862806	0.470435	0.265240	1.766431	0.278925	
0.432344	0.552834	0.857897	0.471042	0.267603	1.777232	0.278849	
0.436415	0.552970	0.857477	0.471083	0.267793	1.777941	0.278864	
0.438585	0.552876	0.857758	0.471072	0.267684	1.777659	0.278834	
0.442656	0.552867	0.858184	0.470993	0.267406	1.775657	0.279015	
0.447969	0.552854	0.858006	0.471015	0.267516	1.776549	0.278925	
0.452040	0.552968	0.857624	0.471047	0.267688	1.777280	0.278925	
0.454210	0.552882	0.857962	0.470981	0.267493	1.776239	0.278970	
0.458281	0.552832	0.858043	0.470974	0.267466	1.776241	0.278940	
0.463594	0.553355	0.856911	0.471044	0.267881	1.777168	0.279166	
0.467665	0.553535	0.856560	0.471119	0.268056	1.777841	0.279212	
0.469835	0.552954	0.858055	0.470987	0.267428	1.775571	0.279076	
0.473906	0.552551	0.858956	0.470984	0.267146	1.775084	0.278879	
0.479219	0.553142	0.857050	0.471141	0.267990	1.778720	0.278895	
0.483290	0.553736	0.855256	0.471289	0.268770	1.782060	0.278940	
0.485460	0.553413	0.856239	0.471113	0.268247	1.779489	0.278985	
0.489531	0.552869	0.857488	0.471000	0.267741	1.778103	0.278789	
0.494844	0.552491	0.858095	0.471053	0.267646	1.778761	0.278502	
0.498915	0.552508	0.857963	0.471177	0.267826	1.780011	0.278396	
0.501085	0.551716	0.859927	0.470970	0.266980	1.777023	0.278200	
0.505156	0.551192	0.860976	0.470847	0.266553	1.775924	0.277988	
0.510469	0.552150	0.857923	0.471084	0.267884	1.781615	0.278034	
0.514540	0.553218	0.854801	0.471397	0.269283	1.787528	0.278124	
0.516710	0.552706	0.856067	0.471234	0.268709	1.785365	0.278018	
0.520781	0.552102	0.857640	0.471017	0.267969	1.782447	0.277928	
0.526094	0.551940	0.858026	0.471049	0.267878	1.782380	0.277837	
0.530165	0.552117	0.857690	0.471249	0.268172	1.783851	0.277807	
0.532335	0.551636	0.859128	0.471140	0.267559	1.781239	0.277762	
0.536406	0.551718	0.858913	0.471175	0.267666	1.781762	0.277762	
0.541719	0.551769	0.857465	0.471301	0.268458	1.787013	0.277309	
0.545790	0.551089	0.858936	0.471139	0.267851	1.785398	0.277052	
0.547960	0.550089	0.861947	0.470785	0.266440	1.779090	0.277037	
0.552031	0.550150	0.861727	0.470745	0.266481	1.779317	0.277052	
0.557344	0.550399	0.858353	0.471115	0.268356	1.791468	0.276085	
0.561415	0.550302	0.858667	0.471010	0.268138	1.790177	0.276145	
0.563585	0.549464	0.861402	0.470675	0.266820	1.784069	0.276206	
0.567656	0.549880	0.861012	0.470453	0.266628	1.781338	0.276704	
0.572969	0.556859	0.856460	0.472861	0.268626	1.769648	0.281976	
0.577040	0.545087	0.860918	0.469336	0.267332	1.804018	0.271810	
0.579210	0.528013	0.866772	0.463703	0.265356	1.855800	0.257491	
0.583281	0.456991	0.869386	0.438415	0.265711	2.183101	0.198507	
0.588594	0.327381	0.868891	0.392206	0.268624	3.161969	0.112003	
0.592665	0.242571	0.871234	0.360422	0.268360	4.322440	0.069015	
0.594835	0.213702	0.871263	0.348448	0.267337	4.908586	0.056584	
0.598906	0.182557	0.874381	0.335201	0.265414	5.727944	0.044379	
0.604219	0.167893	0.866772	0.328720	0.265651	6.245702	0.038942	
0.608290	0.165860	0.857582	0.328597	0.267606	6.371519	0.038066	
0.610460	0.165486	0.855255	0.329058	0.268534	6.407111	0.037869	
0.614531	0.165796	0.851977	0.329451	0.269278	6.411173	0.037930	
0.619844	0.165828	0.856383	0.328758	0.267949	6.378969	0.038035	
0.623915	0.164782	0.867341	0.327667	0.265686	6.367522	0.037824	
0.626085	0.164254	0.870985	0.327347	0.265044	6.371321	0.037688	
0.630156	0.165120	0.865082	0.327240	0.265455	6.344191	0.037975	
0.635469	0.165860	0.854634	0.328845	0.268273	6.386352	0.038020	
0.639540	0.165407	0.853856	0.329636	0.269339	6.430941	0.037779	
0.641710	0.165143	0.855121	0.329569	0.269190	6.435464	0.037703	
0.645781	0.165679	0.855908	0.328419	0.267733	6.377336	0.038005	
0.651094	0.165415	0.863391	0.327370	0.265716	6.342295	0.038050	
0.655165	0.164546	0.870142	0.327255	0.264962	6.359202	0.037794	
0.657335	0.164557	0.868278	0.327781	0.265750	6.374916	0.037748	
0.661406	0.165938	0.855996	0.328552	0.267758	6.367678	0.038096	
0.666719	0.166336	0.848039	0.329549	0.269737	6.403261	0.038081	
0.670790	0.165293	0.856275	0.328976	0.268379	6.412050	0.037809	
0.672960	0.164892	0.861345	0.328513	0.267345	6.400862	0.037748	
0.677031	0.165404	0.863673	0.327283	0.265593	6.336560	0.038066	
0.682344	0.165408	0.864072	0.327017	0.265269	6.331952	0.038081	
0.686415	0.164902	0.862866	0.327855	0.266468	6.381733	0.037809	
0.688585	0.164891	0.859786	0.328692	0.267746	6.410786	0.037718	
0.692656	0.166019	0.851018	0.329294	0.269176	6.398600	0.038020	
0.697969	0.166029	0.852177	0.328951	0.268666	6.389456	0.038050	
0.702040	0.164740	0.865790	0.327663	0.265919	6.374223	0.037794	
0.704210	0.164407	0.869492	0.327548	0.265401	6.373229	0.037718	
0.708281	0.165352	0.866289	0.327797	0.265753	6.342360	0.038035	
0.713594	0.165856	0.858600	0.329170	0.268036	6.381087	0.038035	
0.717665	0.165393	0.856404	0.329933	0.269281	6.429820	0.037779	
0.719835	0.165316	0.854676	0.330211	0.269831	6.443930	0.037718	
0.723906	0.166028	0.853130	0.329435	0.269015	6.394364	0.038035	
0.729219	0.165593	0.861757	0.327845	0.266359	6.351027	0.038066	
0.733290	0.164497	0.870764	0.326910	0.264547	6.350488	0.037809	
0.735460	0.164270	0.869859	0.327258	0.265110	6.372556	0.037688	
0.739531	0.165320	0.860777	0.327868	0.266622	6.364544	0.037960	
0.744844	0.166016	0.851517	0.329219	0.269032	6.398387	0.038020	
0.748915	0.165367	0.854935	0.329585	0.269150	6.427825	0.037779	
0.751085	0.165104	0.858641	0.329465	0.268602	6.422349	0.037733	
0.755156	0.165801	0.864447	0.328628	0.266678	6.347409	0.038126	
0.760469	0.165422	0.870462	0.328192	0.265522	6.337943	0.038066	
0.764540	0.164879	0.866427	0.329065	0.267178	6.399915	0.037748	
0.766710	0.164979	0.862217	0.329552	0.268227	6.417694	0.037718	
0.770781	0.166283	0.852422	0.329643	0.269231	6.389280	0.038111	
0.776094	0.166230	0.851988	0.329949	0.269617	6.404935	0.038050	
0.780165	0.164902	0.863202	0.329145	0.267709	6.411704	0.037718	
0.782335	0.164357	0.871115	0.327991	0.265631	6.379312	0.037688	
0.786406	0.165558	0.871564	0.327507	0.264626	6.309276	0.038186	
0.791719	0.165353	0.858557	0.328201	0.267258	6.381922	0.037915	
0.795790	0.165076	0.848489	0.328643	0.269221	6.440241	0.037673	
0.797960	0.165223	0.852005	0.327755	0.267787	6.396647	0.037839	
0.802031	0.166348	0.850771	0.327997	0.267795	6.354941	0.038232	
0.807344	0.164427	0.858809	0.328605	0.267969	6.434922	0.037537	
0.811415	0.165293	0.870090	0.328264	0.265696	6.347697	0.038005	
0.813585	0.167702	0.881886	0.330323	0.265110	6.240916	0.038911	
0.817656	0.163052	0.855271	0.321447	0.261812	6.337670	0.037507	
0.822969	0.167296	0.859068	0.339618	0.277886	6.558178	0.037839	
0.827040	0.169477	0.885881	0.340639	0.274137	6.383423	0.038881	
0.829210	0.167345	0.869385	0.324219	0.260977	6.153796	0.039108	
0.833281	0.126259	0.173444	0.137524	0.135625	4.244881	0.035437	
0.838594	0.118013	-0.087670	0.082496	0.082043	2.740916	0.041389	
0.842665	0.128534	0.141021	0.121589	0.120310	3.694041	0.038760	
0.844835	0.124330	0.041802	0.106358	0.106249	3.371413	0.039259	
0.848906	0.118276	-0.054311	0.091182	0.091008	3.035159	0.039365	
0.854219	0.123080	0.028453	0.102647	0.102597	3.289178	0.039349	
0.858290	0.121792	0.009794	0.099831	0.099825	3.235148	0.039259	
0.860460	0.119816	-0.029452	0.094577	0.094525	3.112391	0.039380	
0.864531	0.121855	0.006973	0.099541	0.099538	3.224019	0.039349	
0.869844	0.121427	0.000089	0.098524	0.098524	3.201395	0.039349	
0.873915	0.121104	-0.006027	0.097752	0.097750	3.184416	0.039349	
0.876085	0.121629	0.003371	0.098985	0.098984	3.212050	0.039349	
0.880156	0.121477	0.000805	0.098644	0.098644	3.204055	0.039349	
0.885469	0.121381	-0.001013	0.098403	0.098403	3.198959	0.039349	
0.889540	0.121483	0.000851	0.098649	0.098649	3.204348	0.039349	
0.891710	0.121470	0.000639	0.098623	0.098623	3.203656	0.039349	
0.895781	0.121410	-0.000472	0.098474	0.098474	3.200485	0.039349	
0.901094	0.121446	0.000202	0.098564	0.098564	3.202431	0.039349	
0.905165	0.121442	0.000119	0.098553	0.098553	3.202202	0.039349	
0.907335	0.121420	-0.000282	0.098499	0.098499	3.201018	0.039349	
0.911406	0.121438	0.000052	0.098544	0.098544	3.202003	0.039349	
0.916719	0.121436	0.000010	0.098538	0.098538	3.201877	0.039349	
0.920790	0.121432	-0.000064	0.098528	0.098528	3.201657	0.039349	
0.922960	0.121437	0.000024	0.098540	0.098540	3.201922	0.039349	
0.927031	0.121436	0.000013	0.098539	0.098539	3.201884	0.039349	
0.932344	0.121435	-0.000012	0.098535	0.098535	3.201814	0.039349	
0.936415	0.121436	0.000007	0.098538	0.098538	3.201869	0.039349	
0.938585	0.121436	0.000009	0.098538	0.098538	3.201873	0.039349	
0.942656	0.121435	-0.000005	0.098536	0.098536	3.201834	0.039349	
0.947969	0.121435	0.000002	0.098537	0.098537	3.201853	0.039349	
0.952040	0.121435	0.000002	0.098537	0.098537	3.201853	0.039349	
0.954210	0.121435	-0.000003	0.098536	0.098536	3.201840	0.039349	
0.958281	0.121435	0.000000	0.098537	0.098537	3.201849	0.039349	
0.963594	0.121435	0.000000	0.098537	0.098537	3.201849	0.039349	
0.967665	0.121435	-0.000001	0.098537	0.098537	3.201846	0.039349	
0.969835	0.121435	0.000000	0.098537	0.098537	3.201848	0.039349	
0.973906	0.121435	0.000000	0.098537	0.098537	3.201849	0.039349	
0.979219	0.121435	-0.000000	0.098537	0.098537	3.201848	0.039349	
0.983290	0.121435	0.000000	0.098537	0.098537	3.201848	0.039349	
0.985460	0.121435	0.000000	0.098537	0.098537	3.201848	0.039349	
0.989531	0.121435	-0.000000	0.098537	0.098537	3.201848	0.039349	
0.994844	0.121435	0.000000	0.098537	0.098537	3.201848	0.039349	
0.998915	0.121435	0.000000	0.098537	0.098537	3.201848	0.039349	
