TITLE = "DG1DFDX32-P4RK4w1000iv80"
VARIABLES = "x" "Density" "Velocity in x" "Energy" "Pressure" "Temperature" "Fugacity"
ZONE T = "Final Time 0.10"
I = 160, J = 1, K = 1, F = POINT

0.001466	0.836457	-0.000000	0.912643	0.912643	4.002959	0.281553	
0.007211	0.836457	0.000000	0.912643	0.912643	4.002959	0.281553	
0.015625	0.836457	0.000000	0.912643	0.912643	4.002959	0.281553	
0.024039	0.836457	-0.000000	0.912643	0.912643	4.002959	0.281553	
0.029784	0.836457	0.000000	0.912643	0.912643	4.002959	0.281553	
0.032716	0.836457	0.000000	0.912643	0.912643	4.002959	0.281553	
0.038461	0.836457	-0.000000	0.912643	0.912643	4.002959	0.281553	
0.046875	0.836457	-0.000000	0.912643	0.912643	4.002959	0.281553	
0.055289	0.836457	0.000000	0.912643	0.912643	4.002959	0.281553	
0.061034	0.836457	0.000000	0.912643	0.912643	4.002959	0.281553	
0.063966	0.836457	-0.000000	0.912643	0.912643	4.002959	0.281553	
0.069711	0.836457	-0.000000	0.912643	0.912643	4.002959	0.281553	
0.078125	0.836457	0.000000	0.912643	0.912643	4.002959	0.281553	
0.086539	0.836457	-0.000000	0.912643	0.912643	4.002959	0.281553	
0.092284	0.836457	-0.000000	0.912643	0.912643	4.002960	0.281553	
0.095216	0.836457	-0.000000	0.912643	0.912643	4.002959	0.281553	
0.100961	0.836457	0.000000	0.912643	0.912643	4.002959	0.281553	
0.109375	0.836457	-0.000000	0.912643	0.912643	4.002960	0.281553	
0.117789	0.836457	-0.000000	0.912643	0.912643	4.002960	0.281553	
0.123534	0.836457	0.000001	0.912642	0.912642	4.002957	0.281553	
0.126466	0.836457	0.000001	0.912642	0.912642	4.002956	0.281553	
0.132211	0.836458	-0.000001	0.912644	0.912644	4.002963	0.281553	
0.140625	0.836458	-0.000002	0.912645	0.912645	4.002966	0.281553	
0.149039	0.836457	0.000000	0.912643	0.912643	4.002959	0.281553	
0.154784	0.836459	-0.000006	0.912650	0.912650	4.002977	0.281553	
0.157716	0.836463	-0.000016	0.912660	0.912660	4.003011	0.281553	
0.163461	0.836460	-0.000007	0.912650	0.912650	4.002982	0.281553	
0.171875	0.836458	-0.000001	0.912645	0.912645	4.002961	0.281553	
0.180289	0.836458	-0.000000	0.912641	0.912641	4.002966	0.281553	
0.186034	0.836421	0.000125	0.912496	0.912496	4.002609	0.281553	
0.188966	0.836356	0.000336	0.912252	0.912252	4.001624	0.281568	
0.194711	0.836135	0.001067	0.911408	0.911408	3.999155	0.281583	
0.203125	0.835376	0.003556	0.908565	0.908560	3.990091	0.281659	
0.211539	0.833736	0.008859	0.902637	0.902604	3.971574	0.281780	
0.217284	0.831875	0.014805	0.896114	0.896023	3.951367	0.281885	
0.220216	0.830654	0.018681	0.891927	0.891782	3.938359	0.281946	
0.225961	0.827683	0.028057	0.881954	0.881629	3.907415	0.282067	
0.234375	0.821944	0.046005	0.863436	0.862566	3.849250	0.282248	
0.242789	0.814661	0.068610	0.841040	0.839123	3.778274	0.282384	
0.248534	0.808920	0.086332	0.824139	0.821124	3.723201	0.282474	
0.251466	0.805779	0.095994	0.815157	0.811445	3.693676	0.282505	
0.257211	0.799285	0.115969	0.797106	0.791732	3.633074	0.282565	
0.265625	0.789021	0.147427	0.769965	0.761391	3.539412	0.282610	
0.274039	0.778026	0.181027	0.742650	0.729901	3.440836	0.282641	
0.279784	0.770239	0.204852	0.724312	0.708151	3.371996	0.282656	
0.282716	0.766204	0.217206	0.715121	0.697047	3.336763	0.282656	
0.288461	0.758146	0.241790	0.697435	0.675273	3.266652	0.282671	
0.296875	0.746082	0.278589	0.672548	0.643596	3.163806	0.282656	
0.305289	0.733756	0.316146	0.648987	0.612318	3.060678	0.282625	
0.311034	0.725218	0.342141	0.633727	0.591280	2.990402	0.282595	
0.313966	0.720831	0.355497	0.626213	0.580665	2.954596	0.282580	
0.319711	0.712178	0.381829	0.612028	0.560112	2.884612	0.282550	
0.328125	0.699402	0.420710	0.592568	0.530672	2.783047	0.282489	
0.336539	0.686530	0.459882	0.574684	0.502086	2.682513	0.282429	
0.342284	0.677699	0.486753	0.563372	0.483089	2.614653	0.282384	
0.345216	0.673185	0.500488	0.557878	0.473566	2.580399	0.282354	
0.350961	0.664329	0.527438	0.547662	0.455257	2.513632	0.282308	
0.359375	0.651356	0.566900	0.533978	0.429313	2.417724	0.282218	
0.367789	0.638425	0.606221	0.521782	0.404470	2.323936	0.282127	
0.373534	0.629653	0.632891	0.514292	0.388188	2.261532	0.282051	
0.376466	0.625205	0.646411	0.510725	0.380105	2.230298	0.282006	
0.382211	0.616568	0.672656	0.504231	0.364743	2.170076	0.281931	
0.390625	0.604190	0.710225	0.495878	0.343495	2.085702	0.281780	
0.399039	0.592331	0.746170	0.488881	0.323985	2.006621	0.281613	
0.404784	0.584690	0.769285	0.484874	0.311864	1.956954	0.281462	
0.407716	0.580992	0.780460	0.483070	0.306124	1.933149	0.281387	
0.413461	0.574222	0.800839	0.479998	0.295862	1.890410	0.281206	
0.421875	0.565869	0.825843	0.476623	0.283657	1.839473	0.280873	
0.430289	0.559823	0.843700	0.474496	0.275247	1.804292	0.280511	
0.436034	0.557129	0.851524	0.473650	0.271665	1.789564	0.280269	
0.438966	0.556145	0.854333	0.473360	0.270399	1.784385	0.280163	
0.444711	0.554850	0.857944	0.472996	0.268792	1.778023	0.279982	
0.453125	0.553920	0.860330	0.472773	0.267776	1.774484	0.279756	
0.461539	0.553551	0.861082	0.472713	0.267494	1.773740	0.279604	
0.467284	0.553432	0.861182	0.472697	0.267475	1.774103	0.279499	
0.470216	0.553377	0.861183	0.472684	0.267482	1.774396	0.279438	
0.475961	0.553271	0.861203	0.472662	0.267489	1.774850	0.279333	
0.484375	0.553126	0.861228	0.472646	0.267516	1.775541	0.279182	
0.492789	0.552974	0.861173	0.472644	0.267596	1.776666	0.278985	
0.498534	0.552858	0.861103	0.472634	0.267663	1.777544	0.278834	
0.501466	0.552783	0.861097	0.472620	0.267679	1.777878	0.278759	
0.507211	0.552595	0.861143	0.472573	0.267680	1.778616	0.278577	
0.515625	0.552277	0.861195	0.472487	0.267687	1.779823	0.278275	
0.524039	0.551906	0.861145	0.472396	0.267758	1.781670	0.277883	
0.529784	0.551561	0.861108	0.472308	0.267815	1.783368	0.277520	
0.532716	0.551329	0.861162	0.472250	0.267817	1.784165	0.277309	
0.538461	0.550447	0.861421	0.472022	0.267793	1.787322	0.276493	
0.546875	0.547805	0.862151	0.471335	0.267741	1.796823	0.274061	
0.555289	0.539723	0.864339	0.469290	0.267682	1.826973	0.266660	
0.561034	0.526765	0.867465	0.465836	0.267642	1.877575	0.255029	
0.563966	0.516311	0.869920	0.462924	0.267562	1.919869	0.245906	
0.569711	0.486999	0.876216	0.454445	0.267498	2.048961	0.221331	
0.578125	0.422710	0.888396	0.434257	0.267446	2.393348	0.172648	
0.586539	0.348794	0.899868	0.408943	0.267723	2.946392	0.124615	
0.592284	0.302224	0.905106	0.391685	0.267891	3.430946	0.098394	
0.595216	0.281696	0.906227	0.383677	0.268006	3.694063	0.087775	
0.600961	0.247733	0.905972	0.369808	0.268140	4.225421	0.071402	
0.609375	0.212616	0.899878	0.354336	0.268250	4.949921	0.056040	
0.617789	0.190997	0.890105	0.343916	0.268254	5.525474	0.047370	
0.623534	0.181741	0.883189	0.339154	0.268273	5.814258	0.043836	
0.626466	0.178242	0.879863	0.337283	0.268290	5.932912	0.042521	
0.632211	0.173256	0.874173	0.334514	0.268315	6.109645	0.040679	
0.640625	0.169045	0.868063	0.332021	0.268330	6.265356	0.039153	
0.649039	0.167014	0.864554	0.330726	0.268308	6.342333	0.038428	
0.654784	0.166309	0.863429	0.330254	0.268261	6.366690	0.038186	
0.657716	0.166086	0.863184	0.330084	0.268210	6.374100	0.038111	
0.663461	0.165809	0.863105	0.329833	0.268074	6.382442	0.038020	
0.671875	0.165640	0.863530	0.329788	0.268030	6.389168	0.037960	
0.680289	0.165678	0.863407	0.329843	0.268089	6.387188	0.037975	
0.686034	0.165737	0.862962	0.329894	0.268182	6.386783	0.037990	
0.688966	0.165761	0.862652	0.329939	0.268262	6.388592	0.037990	
0.694711	0.165821	0.862176	0.329990	0.268359	6.388298	0.038005	
0.703125	0.165753	0.862597	0.330026	0.268359	6.392984	0.037975	
0.711539	0.165744	0.863338	0.329972	0.268203	6.387279	0.037990	
0.717284	0.165789	0.863350	0.330002	0.268215	6.385796	0.038005	
0.720216	0.165796	0.863384	0.330024	0.268230	6.386381	0.038005	
0.725961	0.165841	0.863317	0.330061	0.268259	6.384887	0.038020	
0.734375	0.165785	0.863736	0.330164	0.268322	6.390496	0.037990	
0.742789	0.165798	0.863587	0.330286	0.268462	6.391483	0.037990	
0.748534	0.165896	0.862494	0.330444	0.268739	6.394071	0.038005	
0.751466	0.165911	0.862508	0.330442	0.268730	6.395241	0.038005	
0.757211	0.165911	0.863189	0.330387	0.268577	6.390242	0.038020	
0.765625	0.165821	0.864248	0.330436	0.268508	6.393254	0.037990	
0.774039	0.165810	0.864788	0.330469	0.268468	6.392428	0.037990	
0.779784	0.165832	0.865303	0.330490	0.268407	6.389127	0.038005	
0.782716	0.165901	0.863860	0.330601	0.268699	6.394443	0.038005	
0.788461	0.165966	0.865007	0.330842	0.268751	6.394497	0.038020	
0.796875	0.165780	0.865149	0.330797	0.268756	6.399978	0.037960	
0.805289	0.165849	0.858771	0.330182	0.269026	6.405341	0.037960	
0.811034	0.165590	0.856484	0.327768	0.267032	6.365587	0.038020	
0.813966	0.164723	0.848467	0.323380	0.264089	6.328447	0.037930	
0.819711	0.164176	0.844755	0.323963	0.265383	6.380237	0.037643	
0.828125	0.153917	0.684722	0.269242	0.233161	5.985646	0.036404	
0.836539	0.132008	0.239801	0.148538	0.144743	4.329091	0.036721	
0.842284	0.118276	-0.066547	0.088854	0.088592	2.955162	0.039908	
0.845216	0.119591	-0.037718	0.093037	0.092952	3.066280	0.039606	
0.850961	0.123290	0.030904	0.103192	0.103133	3.300409	0.039349	
0.859375	0.121145	-0.006314	0.097975	0.097972	3.191345	0.039319	
0.867789	0.121544	-0.002901	0.098051	0.098050	3.183741	0.039501	
0.873534	0.122205	0.011403	0.100261	0.100253	3.237746	0.039380	
0.876466	0.121410	-0.001705	0.098683	0.098683	3.207677	0.039304	
0.882211	0.121477	-0.002441	0.098199	0.098198	3.189715	0.039440	
0.890625	0.121649	0.001022	0.098761	0.098760	3.203560	0.039410	
0.899039	0.121564	-0.000486	0.098577	0.098577	3.199042	0.039410	
0.904784	0.121578	-0.000483	0.098521	0.098521	3.197395	0.039425	
0.907716	0.121637	0.000752	0.098726	0.098726	3.202899	0.039410	
0.913461	0.121588	-0.000087	0.098625	0.098625	3.200321	0.039410	
0.921875	0.121594	-0.000018	0.098627	0.098627	3.200661	0.039410	
0.930289	0.121597	0.000056	0.098640	0.098640	3.200822	0.039410	
0.936034	0.121589	-0.000092	0.098621	0.098621	3.200374	0.039410	
0.938966	0.121595	-0.000015	0.098628	0.098628	3.200674	0.039410	
0.944711	0.121596	0.000028	0.098636	0.098636	3.200750	0.039410	
0.953125	0.121594	-0.000013	0.098630	0.098630	3.200637	0.039410	
0.961539	0.121595	0.000006	0.098632	0.098632	3.200693	0.039410	
0.967284	0.121595	0.000006	0.098633	0.098633	3.200688	0.039410	
0.970216	0.121594	-0.000010	0.098631	0.098631	3.200643	0.039410	
0.975961	0.121595	0.000001	0.098632	0.098632	3.200679	0.039410	
0.984375	0.121595	0.000000	0.098632	0.098632	3.200674	0.039410	
0.992789	0.121595	-0.000001	0.098632	0.098632	3.200672	0.039410	
0.998534	0.121595	0.000001	0.098632	0.098632	3.200678	0.039410	
