TITLE = "DG1DFDX64-P4RK4w10iv80"
VARIABLES = "x" "Density" "Velocity in x" "Energy" "Pressure" "Temperature" "Fugacity"
ZONE T = "Final Time 0.10"
I = 320, J = 1, K = 1, F = POINT

0.000733	0.837173	0.000497	0.909913	0.909913	3.986383	0.282535	
0.003606	0.837189	0.000562	0.910032	0.910032	3.986897	0.282520	
0.007813	0.837216	0.000625	0.910257	0.910257	3.987868	0.282489	
0.012019	0.837227	0.000751	0.910319	0.910319	3.987980	0.282489	
0.014892	0.837219	0.000919	0.910171	0.910171	3.987538	0.282505	
0.016358	0.837208	0.001032	0.910037	0.910037	3.987083	0.282520	
0.019231	0.837175	0.001314	0.909646	0.909645	3.985329	0.282580	
0.023438	0.837117	0.001748	0.909013	0.909011	3.982628	0.282671	
0.027644	0.837082	0.002030	0.908640	0.908638	3.981219	0.282716	
0.030517	0.837083	0.002073	0.908656	0.908654	3.981233	0.282716	
0.031983	0.837087	0.002071	0.908705	0.908703	3.981272	0.282716	
0.034856	0.837095	0.002062	0.908806	0.908805	3.981704	0.282701	
0.039063	0.837083	0.002169	0.908706	0.908704	3.981588	0.282701	
0.043269	0.837020	0.002538	0.908090	0.908087	3.978847	0.282792	
0.046142	0.836945	0.002954	0.907364	0.907361	3.975984	0.282882	
0.047608	0.836899	0.003201	0.906937	0.906933	3.974474	0.282927	
0.050481	0.836809	0.003674	0.906122	0.906116	3.971125	0.283033	
0.054688	0.836725	0.004117	0.905377	0.905370	3.968187	0.283124	
0.058894	0.836711	0.004187	0.905300	0.905293	3.967705	0.283139	
0.061767	0.836716	0.004158	0.905389	0.905382	3.968104	0.283124	
0.063233	0.836710	0.004182	0.905366	0.905359	3.968051	0.283124	
0.066106	0.836678	0.004343	0.905107	0.905099	3.967033	0.283154	
0.070313	0.836551	0.004982	0.904011	0.904001	3.962627	0.283290	
0.074519	0.836333	0.006056	0.902184	0.902168	3.955596	0.283501	
0.077392	0.836167	0.006855	0.900852	0.900833	3.950132	0.283668	
0.078858	0.836095	0.007200	0.900282	0.900260	3.948037	0.283728	
0.081731	0.836004	0.007632	0.899578	0.899554	3.945414	0.283804	
0.085938	0.835968	0.007788	0.899356	0.899331	3.944370	0.283834	
0.090144	0.835955	0.007828	0.899344	0.899319	3.944592	0.283819	
0.093017	0.835883	0.008156	0.898832	0.898805	3.942503	0.283879	
0.094483	0.835822	0.008441	0.898369	0.898340	3.940876	0.283924	
0.097356	0.835638	0.009309	0.896959	0.896923	3.935261	0.284091	
0.101563	0.835249	0.011100	0.894102	0.894051	3.924237	0.284408	
0.105769	0.834855	0.012884	0.891321	0.891252	3.913188	0.284725	
0.108642	0.834692	0.013608	0.890215	0.890138	3.909223	0.284831	
0.110108	0.834652	0.013786	0.889950	0.889871	3.908151	0.284861	
0.112981	0.834626	0.013883	0.889836	0.889756	3.907561	0.284876	
0.117188	0.834566	0.014114	0.889548	0.889465	3.906656	0.284891	
0.121394	0.834313	0.015218	0.887899	0.887802	3.900463	0.285057	
0.124267	0.833983	0.016679	0.885683	0.885567	3.891831	0.285299	
0.125733	0.833774	0.017596	0.884308	0.884179	3.886417	0.285450	
0.128606	0.833295	0.019658	0.881268	0.881107	3.875060	0.285752	
0.132813	0.832669	0.022310	0.877427	0.877220	3.860329	0.286145	
0.137019	0.832351	0.023637	0.875558	0.875326	3.853285	0.286326	
0.139892	0.832310	0.023798	0.875364	0.875128	3.852557	0.286341	
0.141358	0.832281	0.023899	0.875252	0.875014	3.852296	0.286341	
0.144231	0.832156	0.024394	0.874599	0.874351	3.849766	0.286402	
0.148438	0.831659	0.026446	0.871737	0.871447	3.839049	0.286673	
0.152644	0.830757	0.030165	0.866553	0.866175	3.819574	0.287172	
0.155517	0.829999	0.033228	0.862381	0.861923	3.803870	0.287565	
0.156983	0.829615	0.034758	0.860332	0.859831	3.795996	0.287761	
0.159856	0.829011	0.037149	0.857164	0.856592	3.784145	0.288048	
0.164063	0.828580	0.038846	0.854958	0.854333	3.776223	0.288229	
0.168269	0.828447	0.039343	0.854370	0.853729	3.774014	0.288275	
0.171142	0.828183	0.040339	0.853129	0.852456	3.769291	0.288380	
0.172608	0.827944	0.041262	0.851951	0.851246	3.765128	0.288471	
0.175481	0.827249	0.043974	0.848448	0.847648	3.751889	0.288788	
0.179688	0.825771	0.049672	0.841200	0.840181	3.725091	0.289407	
0.183894	0.824125	0.055881	0.833528	0.832242	3.696655	0.290042	
0.186767	0.823265	0.059060	0.829711	0.828275	3.682520	0.290344	
0.188233	0.822987	0.060100	0.828463	0.826976	3.677786	0.290450	
0.191106	0.822730	0.061064	0.827320	0.825787	3.673565	0.290540	
0.195313	0.822449	0.062083	0.826161	0.824576	3.669456	0.290616	
0.199519	0.821552	0.065326	0.822396	0.820643	3.655727	0.290888	
0.202392	0.820373	0.069637	0.817356	0.815367	3.637013	0.291280	
0.203858	0.819664	0.072231	0.814338	0.812200	3.625688	0.291522	
0.206731	0.818040	0.078067	0.807689	0.805196	3.601020	0.292021	
0.210938	0.815777	0.086049	0.798849	0.795828	3.568449	0.292640	
0.215144	0.814397	0.090858	0.793670	0.790309	3.549333	0.292987	
0.218017	0.814122	0.091865	0.792570	0.789135	3.545403	0.293063	
0.219483	0.814023	0.092219	0.792190	0.788729	3.543935	0.293093	
0.222356	0.813598	0.093672	0.790674	0.787105	3.538405	0.293184	
0.226563	0.811964	0.099261	0.784832	0.780832	3.516927	0.293546	
0.230769	0.809135	0.108955	0.774786	0.769984	3.479569	0.294196	
0.233642	0.806899	0.116518	0.767143	0.761665	3.451174	0.294664	
0.235108	0.805755	0.120312	0.763412	0.757580	3.437275	0.294875	
0.237981	0.803868	0.126520	0.757422	0.750988	3.415050	0.295192	
0.242188	0.802404	0.131364	0.752795	0.745872	3.397685	0.295449	
0.246394	0.801960	0.132927	0.751256	0.744171	3.391893	0.295555	
0.249267	0.801212	0.135366	0.748978	0.741638	3.383255	0.295676	
0.250733	0.800470	0.137733	0.746813	0.739220	3.375265	0.295766	
0.253606	0.798396	0.144435	0.740663	0.732335	3.352361	0.296053	
0.257813	0.794351	0.157454	0.728952	0.719105	3.308042	0.296612	
0.262019	0.790162	0.170705	0.717498	0.705985	3.264351	0.297096	
0.264892	0.787956	0.177501	0.711893	0.699480	3.243395	0.297247	
0.266358	0.787198	0.179858	0.709954	0.697222	3.235788	0.297322	
0.269231	0.786544	0.182000	0.708126	0.695099	3.228494	0.297428	
0.273438	0.785859	0.184283	0.706156	0.692812	3.220685	0.297549	
0.277644	0.783439	0.191662	0.700288	0.685899	3.198173	0.297700	
0.280517	0.780270	0.201278	0.692810	0.677005	3.169397	0.297866	
0.281983	0.778506	0.206688	0.688620	0.671991	3.152948	0.297987	
0.284856	0.774776	0.217997	0.680091	0.661681	3.119379	0.298183	
0.289063	0.769889	0.232532	0.669610	0.648795	3.078070	0.298304	
0.293269	0.766986	0.241025	0.663753	0.641475	3.054899	0.298304	
0.296142	0.766447	0.242800	0.662407	0.639815	3.049065	0.298395	
0.297608	0.766320	0.243309	0.661962	0.639279	3.046766	0.298470	
0.300481	0.765333	0.246291	0.659861	0.636648	3.038154	0.298516	
0.304688	0.761276	0.257952	0.652209	0.626882	3.007545	0.298425	
0.308894	0.754822	0.276547	0.640377	0.611514	2.959020	0.298289	
0.311767	0.750462	0.289132	0.632615	0.601246	2.926421	0.298198	
0.313233	0.748369	0.295051	0.629115	0.596540	2.911596	0.298108	
0.316106	0.744968	0.304502	0.623734	0.589197	2.889100	0.297866	
0.320313	0.742481	0.311507	0.619766	0.583742	2.872030	0.297730	
0.324519	0.741805	0.313803	0.618217	0.581694	2.864375	0.297881	
0.327392	0.740198	0.318391	0.615608	0.578090	2.852947	0.297821	
0.328858	0.738459	0.323079	0.613157	0.574617	2.842686	0.297624	
0.331731	0.733795	0.335761	0.606618	0.565255	2.814515	0.297141	
0.335938	0.725940	0.357314	0.595844	0.549502	2.766080	0.296401	
0.340144	0.719204	0.375668	0.587172	0.536423	2.726114	0.295676	
0.343017	0.715931	0.384222	0.583468	0.530623	2.709448	0.295147	
0.344483	0.714754	0.387301	0.582149	0.528542	2.703322	0.294966	
0.347356	0.713966	0.389644	0.580977	0.526779	2.697368	0.294966	
0.351563	0.712837	0.393127	0.579175	0.524091	2.687692	0.295041	
0.355769	0.707754	0.406395	0.573729	0.515284	2.662016	0.294211	
0.358642	0.701367	0.422825	0.567436	0.504741	2.632249	0.293002	
0.360108	0.698200	0.431161	0.564260	0.499362	2.616426	0.292474	
0.362981	0.692426	0.446353	0.558654	0.489678	2.587637	0.291507	
0.367188	0.685888	0.463181	0.552886	0.479312	2.557847	0.290223	
0.371394	0.682255	0.472197	0.550051	0.473990	2.543456	0.289362	
0.374267	0.681575	0.474234	0.549213	0.472571	2.538391	0.289362	
0.375733	0.681531	0.474653	0.548910	0.472137	2.536285	0.289483	
0.378606	0.679644	0.479655	0.547213	0.469031	2.526681	0.289181	
0.382813	0.671826	0.498839	0.541757	0.458169	2.498373	0.287142	
0.387019	0.660983	0.525683	0.534643	0.443314	2.458870	0.284317	
0.389892	0.655514	0.539538	0.531081	0.435670	2.437489	0.282988	
0.391358	0.653230	0.545196	0.529720	0.432637	2.429250	0.282384	
0.394231	0.649413	0.554222	0.527756	0.428018	2.418334	0.281175	
0.398438	0.646585	0.560957	0.526271	0.424540	2.409737	0.280314	
0.402644	0.645610	0.563966	0.525292	0.422621	2.402472	0.280314	
0.405517	0.642799	0.570883	0.523762	0.419016	2.392885	0.279529	
0.406983	0.639552	0.578354	0.522394	0.415431	2.385260	0.278381	
0.409856	0.631497	0.597059	0.519121	0.406563	2.365714	0.275572	
0.414063	0.620529	0.623092	0.514794	0.394335	2.337506	0.271841	
0.418269	0.613963	0.638634	0.512408	0.387204	2.321182	0.269560	
0.421142	0.610938	0.645273	0.511579	0.384388	2.316600	0.268306	
0.422608	0.609418	0.648555	0.511185	0.383017	2.314579	0.267657	
0.425481	0.608416	0.651003	0.510752	0.381828	2.311174	0.267370	
0.429688	0.606541	0.655855	0.509888	0.379437	2.304238	0.266871	
0.433894	0.598240	0.674294	0.507867	0.371865	2.291818	0.263412	
0.436767	0.588014	0.696600	0.505857	0.363190	2.280057	0.258911	
0.438233	0.583800	0.706081	0.505007	0.359479	2.274124	0.257129	
0.441106	0.578173	0.718965	0.503859	0.354427	2.265364	0.254803	
0.445313	0.573022	0.730064	0.503037	0.350328	2.260793	0.252446	
0.449519	0.569071	0.737984	0.502583	0.347619	2.260184	0.250452	
0.452392	0.567891	0.740877	0.502273	0.346416	2.257109	0.250045	
0.453858	0.567785	0.741237	0.502176	0.346196	2.256263	0.250045	
0.456731	0.564596	0.748051	0.501742	0.343773	2.254033	0.248549	
0.460938	0.552968	0.772051	0.500718	0.335916	2.252553	0.242689	
0.465144	0.538736	0.801561	0.499726	0.326657	2.252787	0.235438	
0.468017	0.534279	0.810659	0.499457	0.323901	2.253742	0.233127	
0.469483	0.533936	0.811541	0.499391	0.323567	2.253121	0.232991	
0.472356	0.531091	0.816824	0.499287	0.322114	2.255915	0.231390	
0.476563	0.526413	0.825577	0.499119	0.319723	2.260881	0.228747	
0.480769	0.524558	0.829589	0.498945	0.318440	2.260212	0.227856	
0.483642	0.521660	0.835197	0.498833	0.316890	2.262819	0.226255	
0.485108	0.515764	0.846267	0.498746	0.314060	2.270336	0.222886	
0.487981	0.504254	0.868194	0.498608	0.308565	2.285671	0.216346	
0.492188	0.493209	0.889314	0.498487	0.303453	2.302239	0.210063	
0.496394	0.489911	0.894706	0.498444	0.302357	2.310705	0.208023	
0.499267	0.486902	0.899975	0.498402	0.301217	2.317416	0.206226	
0.500733	0.485423	0.902532	0.498384	0.300680	2.320941	0.205335	
0.503606	0.482397	0.907718	0.498342	0.299606	2.328375	0.203507	
0.507813	0.479038	0.913617	0.498297	0.298372	2.336471	0.201498	
0.512019	0.467854	0.932560	0.498173	0.294734	2.367966	0.194686	
0.514892	0.456153	0.952795	0.498032	0.290980	2.402619	0.187647	
0.516358	0.450130	0.963374	0.497944	0.289063	2.421336	0.184052	
0.519231	0.446950	0.968199	0.497827	0.288340	2.433579	0.182074	
0.523438	0.444653	0.970641	0.497645	0.288182	2.446073	0.180503	
0.527644	0.439509	0.978896	0.497466	0.286889	2.465805	0.177361	
0.530517	0.436313	0.984017	0.497353	0.286115	2.478851	0.175397	
0.531983	0.435783	0.984295	0.497282	0.286181	2.482378	0.175020	
0.534856	0.430946	0.991406	0.497003	0.285218	2.504359	0.171999	
0.539063	0.416066	1.013535	0.495989	0.282286	2.573875	0.162891	
0.543269	0.403677	1.031650	0.494935	0.280117	2.638561	0.155369	
0.546142	0.399941	1.036391	0.494475	0.279686	2.661118	0.153057	
0.547608	0.399552	1.036478	0.494365	0.279748	2.664512	0.152786	
0.550481	0.397814	1.037865	0.494029	0.279773	2.677226	0.151653	
0.554688	0.393034	1.044554	0.493533	0.279115	2.705900	0.148768	
0.558894	0.387018	1.052051	0.492664	0.278486	2.744503	0.145128	
0.561767	0.380779	1.058824	0.491480	0.278033	2.788478	0.141321	
0.563233	0.376248	1.063963	0.490610	0.277650	2.820185	0.138617	
0.566106	0.365384	1.077134	0.488558	0.276596	2.898912	0.132243	
0.570313	0.356123	1.087253	0.486469	0.275979	2.972619	0.126851	
0.574519	0.353289	1.088866	0.485536	0.276101	2.999348	0.125144	
0.577392	0.351634	1.090080	0.485055	0.276136	3.014730	0.124162	
0.578858	0.349781	1.092157	0.484637	0.276026	3.030423	0.123105	
0.581731	0.346102	1.096071	0.483758	0.275860	3.062674	0.121005	
0.585938	0.338585	1.101989	0.481302	0.275717	3.133325	0.116716	
0.590144	0.326704	1.110353	0.476916	0.275521	3.251599	0.110085	
0.593017	0.318051	1.116515	0.473611	0.275369	3.343128	0.105372	
0.594483	0.314504	1.119025	0.472229	0.275315	3.382024	0.103469	
0.597356	0.311111	1.120490	0.470674	0.275374	3.422397	0.101626	
0.601563	0.309287	1.120328	0.469659	0.275561	3.445284	0.100629	
0.605769	0.305629	1.122378	0.468143	0.275637	3.489615	0.098681	
0.608642	0.301268	1.124601	0.466169	0.275658	3.543629	0.096385	
0.610108	0.298719	1.125235	0.464809	0.275697	3.575864	0.095056	
0.612981	0.292765	1.125607	0.461270	0.275804	3.652916	0.091989	
0.617188	0.281313	1.125988	0.454248	0.275918	3.810401	0.086219	
0.621394	0.272954	1.125617	0.448927	0.276010	3.934016	0.082111	
0.624267	0.270704	1.124808	0.447327	0.276081	3.969726	0.081008	
0.625733	0.270470	1.124315	0.447072	0.276123	3.972691	0.080902	
0.628606	0.269427	1.123786	0.446330	0.276201	3.989920	0.080389	
0.632813	0.265304	1.123207	0.443662	0.276309	4.057385	0.078395	
0.637019	0.258384	1.119222	0.438149	0.276316	4.170371	0.075148	
0.639892	0.252431	1.113752	0.432791	0.276228	4.271144	0.072414	
0.641358	0.249197	1.110333	0.429764	0.276154	4.327677	0.070948	
0.644231	0.242720	1.103616	0.423800	0.275988	4.443997	0.068063	
0.648438	0.237515	1.097400	0.418847	0.275828	4.541834	0.065783	
0.652644	0.236237	1.095250	0.417510	0.275818	4.567009	0.065224	
0.655517	0.235354	1.093963	0.416661	0.275830	4.585598	0.064831	
0.656983	0.234144	1.092457	0.415522	0.275801	4.610270	0.064302	
0.659856	0.230846	1.087725	0.412214	0.275652	4.674908	0.062898	
0.664063	0.224193	1.074017	0.404275	0.274970	4.806228	0.060134	
0.668269	0.216551	1.055033	0.394401	0.273880	4.961070	0.057052	
0.671142	0.212066	1.043049	0.388519	0.273160	5.054707	0.055285	
0.672608	0.210415	1.038653	0.386397	0.272899	5.090842	0.054635	
0.675481	0.208953	1.034323	0.384400	0.272628	5.123578	0.054061	
0.679688	0.208454	1.032648	0.383697	0.272553	5.135022	0.053865	
0.683894	0.206201	1.025882	0.380655	0.272148	5.183139	0.053004	
0.686767	0.203027	1.015193	0.376010	0.271388	5.253455	0.051796	
0.688233	0.201074	1.007805	0.372927	0.270814	5.295006	0.051071	
0.691106	0.197022	0.990577	0.366042	0.269378	5.377846	0.049606	
0.695313	0.191070	0.963029	0.355587	0.266985	5.499095	0.047506	
0.699519	0.187476	0.945543	0.349241	0.265434	5.572077	0.046267	
0.702392	0.186761	0.941929	0.347950	0.265100	5.589604	0.046011	
0.703858	0.186762	0.941778	0.347899	0.265075	5.589658	0.046011	
0.706731	0.186481	0.940165	0.347338	0.264922	5.594159	0.045920	
0.710938	0.184029	0.927030	0.342771	0.263695	5.644237	0.045089	
0.715144	0.179682	0.900346	0.333772	0.260945	5.721482	0.043685	
0.718017	0.176349	0.877434	0.326323	0.258438	5.775674	0.042642	
0.719483	0.174785	0.865969	0.322681	0.257145	5.800673	0.042159	
0.722356	0.171996	0.845244	0.316247	0.254807	5.842667	0.041313	
0.726563	0.170055	0.830389	0.311722	0.253092	5.869012	0.040739	
0.730769	0.169785	0.827974	0.310952	0.252755	5.871567	0.040664	
0.733642	0.169419	0.824743	0.309956	0.252337	5.875963	0.040558	
0.735108	0.168823	0.819812	0.308475	0.251743	5.881423	0.040392	
0.737981	0.166955	0.804123	0.303825	0.249847	5.905717	0.039848	
0.742188	0.163286	0.769912	0.293846	0.245451	5.934505	0.038851	
0.746394	0.159731	0.733512	0.283537	0.240566	5.946057	0.037945	
0.749267	0.157950	0.714311	0.278227	0.237930	5.947281	0.037507	
0.750733	0.157344	0.707773	0.276443	0.237033	5.948269	0.037356	
0.753606	0.156831	0.701986	0.274832	0.236190	5.947004	0.037235	
0.757813	0.156706	0.699991	0.274198	0.235806	5.942228	0.037220	
0.762019	0.155586	0.686726	0.270549	0.233863	5.937145	0.036963	
0.764892	0.153948	0.667123	0.265274	0.231016	5.925621	0.036600	
0.766358	0.152931	0.654488	0.261903	0.229149	5.918783	0.036374	
0.769231	0.150925	0.628166	0.254918	0.225141	5.892736	0.035966	
0.773438	0.148376	0.592665	0.245648	0.219589	5.847721	0.035483	
0.777644	0.146954	0.572027	0.240332	0.216289	5.818055	0.035226	
0.780517	0.146645	0.567277	0.239071	0.215475	5.808216	0.035181	
0.781983	0.146602	0.566412	0.238809	0.215292	5.804828	0.035181	
0.784856	0.146435	0.563344	0.237939	0.214703	5.791605	0.035181	
0.789063	0.145225	0.544610	0.233135	0.211598	5.758828	0.034984	
0.793269	0.143114	0.510784	0.224600	0.205931	5.688127	0.034682	
0.796142	0.141567	0.484601	0.218052	0.201430	5.623015	0.034501	
0.797608	0.140885	0.472555	0.215040	0.199310	5.592865	0.034425	
0.800481	0.139742	0.451990	0.209939	0.195664	5.535689	0.034320	
0.804688	0.138868	0.435856	0.205945	0.192754	5.485487	0.034259	
0.808894	0.138592	0.430256	0.204484	0.191655	5.468440	0.034244	
0.811767	0.138336	0.425003	0.203125	0.190632	5.448236	0.034244	
0.813233	0.138058	0.419547	0.201764	0.189614	5.430998	0.034229	
0.816106	0.137195	0.402917	0.197706	0.186570	5.377205	0.034184	
0.820313	0.135518	0.369393	0.189570	0.180324	5.260179	0.034138	
0.824519	0.133978	0.336898	0.181706	0.174103	5.136865	0.034153	
0.827392	0.133228	0.320417	0.177719	0.170880	5.070736	0.034184	
0.828858	0.132959	0.314458	0.176284	0.169711	5.045919	0.034199	
0.831731	0.132635	0.307210	0.174534	0.168275	5.017030	0.034214	
0.835938	0.132412	0.301886	0.173196	0.167163	4.991620	0.034244	
0.840144	0.131888	0.289671	0.170222	0.164689	4.935163	0.034305	
0.843017	0.131217	0.274122	0.166504	0.161574	4.868297	0.034365	
0.844483	0.130796	0.264275	0.164164	0.159597	4.824661	0.034410	
0.847356	0.129962	0.244289	0.159403	0.155525	4.730840	0.034531	
0.851563	0.128947	0.218980	0.153341	0.150249	4.605959	0.034727	
0.855769	0.128341	0.203462	0.149629	0.146972	4.524276	0.034879	
0.858642	0.128144	0.198379	0.148416	0.145894	4.498986	0.034924	
0.860108	0.128080	0.196727	0.148022	0.145544	4.490714	0.034939	
0.862981	0.127969	0.193701	0.147278	0.144877	4.475367	0.034969	
0.867188	0.127549	0.182558	0.144603	0.142478	4.412507	0.035105	
0.871394	0.126824	0.163147	0.139970	0.138282	4.308017	0.035332	
0.874267	0.126280	0.148264	0.136411	0.135023	4.225200	0.035528	
0.875733	0.126039	0.141516	0.134784	0.133522	4.184763	0.035634	
0.878606	0.125651	0.130444	0.132098	0.131029	4.118091	0.035815	
0.882813	0.125322	0.120975	0.129813	0.128896	4.063017	0.035966	
0.887019	0.125190	0.117220	0.128920	0.128060	4.041239	0.036026	
0.889892	0.125117	0.115068	0.128402	0.127574	4.026593	0.036072	
0.891358	0.125052	0.113154	0.127933	0.127133	4.015897	0.036102	
0.894231	0.124844	0.107002	0.126438	0.125723	3.976510	0.036223	
0.898438	0.124388	0.093417	0.123128	0.122586	3.893496	0.036480	
0.902644	0.123947	0.079953	0.119812	0.119416	3.804316	0.036782	
0.905517	0.123732	0.073185	0.118123	0.117792	3.760930	0.036933	
0.906983	0.123657	0.070802	0.117526	0.117216	3.744416	0.036993	
0.909856	0.123558	0.067697	0.116761	0.116478	3.723570	0.037069	
0.914063	0.123504	0.066098	0.116384	0.116115	3.711512	0.037114	
0.918269	0.123430	0.063762	0.115807	0.115556	3.698264	0.037159	
0.921142	0.123315	0.060061	0.114875	0.114652	3.670992	0.037265	
0.922608	0.123232	0.057366	0.114195	0.113992	3.651584	0.037341	
0.925481	0.123046	0.051324	0.112666	0.112504	3.609185	0.037507	
0.929688	0.122803	0.043252	0.110589	0.110474	3.553003	0.037733	
0.933894	0.122654	0.038207	0.109273	0.109183	3.514179	0.037899	
0.936767	0.122607	0.036652	0.108869	0.108786	3.503348	0.037945	
0.938233	0.122594	0.036253	0.108771	0.108690	3.499892	0.037960	
0.941106	0.122584	0.035992	0.108713	0.108634	3.499328	0.037960	
0.945313	0.122550	0.034873	0.108422	0.108347	3.489251	0.038005	
0.949519	0.122446	0.031327	0.107479	0.107419	3.461881	0.038126	
0.952392	0.122345	0.027822	0.106542	0.106495	3.434911	0.038247	
0.953858	0.122293	0.026019	0.106057	0.106016	3.421470	0.038307	
0.956731	0.122207	0.022973	0.105225	0.105193	3.398357	0.038413	
0.960938	0.122129	0.020214	0.104456	0.104431	3.375917	0.038519	
0.965144	0.122101	0.019290	0.104197	0.104175	3.366648	0.038564	
0.968017	0.122097	0.019237	0.104185	0.104162	3.366428	0.038564	
0.969483	0.122095	0.019198	0.104173	0.104151	3.366303	0.038564	
0.972356	0.122084	0.018839	0.104068	0.104047	3.363112	0.038579	
0.976563	0.122029	0.016893	0.103519	0.103502	3.347327	0.038655	
0.980769	0.121951	0.014036	0.102711	0.102699	3.322789	0.038776	
0.983642	0.121903	0.012245	0.102200	0.102191	3.307632	0.038851	
0.985108	0.121885	0.011565	0.102004	0.101996	3.301673	0.038881	
0.987981	0.121861	0.010615	0.101731	0.101724	3.295377	0.038911	
0.992188	0.121849	0.010099	0.101599	0.101593	3.289720	0.038942	
0.996394	0.121850	0.010060	0.101620	0.101614	3.292255	0.038927	
0.999267	0.121848	0.009891	0.101598	0.101592	3.289679	0.038942	
