TITLE = "DG1DMBX16-P4RK3w10iv80"
VARIABLES = "x" "Density" "Velocity in x" "Energy" "Pressure" "Temperature" "Fugacity"
ZONE T = "Final Time 0.10"
I = 80, J = 1, K = 1, F = POINT

0.002932	1.000000	-0.000000	1.000000	1.000000	4.000000	0.282095	
0.014423	1.000000	0.000000	1.000000	1.000000	4.000000	0.282095	
0.031250	1.000000	-0.000000	1.000000	1.000000	4.000000	0.282095	
0.048077	1.000000	0.000000	1.000000	1.000000	4.000000	0.282095	
0.059568	1.000000	-0.000000	1.000000	1.000000	4.000000	0.282095	
0.065432	1.000000	-0.000000	1.000000	1.000000	4.000000	0.282095	
0.076923	1.000000	0.000000	1.000000	1.000000	4.000000	0.282095	
0.093750	1.000000	-0.000000	1.000000	1.000000	4.000000	0.282095	
0.110577	1.000000	0.000000	1.000000	1.000000	4.000000	0.282095	
0.122068	1.000000	-0.000000	1.000000	1.000000	4.000000	0.282095	
0.127932	1.000000	0.000000	1.000000	1.000000	4.000000	0.282095	
0.139423	1.000000	0.000000	1.000000	1.000000	4.000000	0.282095	
0.156250	1.000000	-0.000000	1.000000	1.000000	4.000000	0.282095	
0.173077	1.000000	0.000000	1.000000	1.000000	4.000000	0.282095	
0.184568	1.000000	-0.000000	1.000000	1.000000	4.000000	0.282095	
0.190432	1.000000	0.000000	1.000000	1.000000	4.000000	0.282095	
0.201923	1.000000	0.000000	1.000000	1.000000	4.000000	0.282095	
0.218750	1.000000	0.000000	1.000000	1.000000	4.000000	0.282095	
0.235577	1.000000	0.000000	0.999999	0.999999	3.999997	0.282095	
0.247068	1.000000	0.000000	0.999998	0.999998	3.999991	0.282095	
0.252932	0.999999	0.000001	0.999997	0.999997	3.999991	0.282095	
0.264423	1.000000	0.000004	0.999986	0.999986	3.999945	0.282097	
0.281250	0.999997	0.000017	0.999942	0.999942	3.999783	0.282102	
0.298077	0.999988	0.000081	0.999753	0.999753	3.999062	0.282124	
0.309568	0.999962	0.000210	0.999391	0.999391	3.997715	0.282165	
0.315432	0.999940	0.000333	0.999051	0.999051	3.996442	0.282203	
0.326923	0.999847	0.000825	0.997827	0.997827	3.991918	0.282337	
0.343750	0.999437	0.002699	0.993448	0.993445	3.976018	0.282785	
0.360577	0.998190	0.008007	0.982404	0.982372	3.936614	0.283842	
0.372068	0.996145	0.015671	0.967896	0.967773	3.886074	0.285097	
0.377932	0.994522	0.021674	0.957330	0.957097	3.849473	0.285982	
0.389423	0.989466	0.038938	0.928975	0.928225	3.752428	0.288184	
0.406250	0.974762	0.083395	0.866629	0.863239	3.542362	0.292198	
0.423077	0.947086	0.157982	0.782687	0.770868	3.255748	0.296135	
0.434568	0.916967	0.229880	0.719489	0.695260	3.032870	0.297065	
0.440432	0.898538	0.272875	0.687967	0.654514	2.913686	0.296989	
0.451923	0.853523	0.370707	0.632114	0.573467	2.687528	0.293740	
0.468750	0.767223	0.539939	0.574288	0.462453	2.411046	0.278769	
0.485577	0.664533	0.726950	0.549851	0.374263	2.252785	0.249794	
0.497068	0.582297	0.862148	0.546953	0.330543	2.270614	0.218021	
0.502932	0.548111	0.915000	0.546614	0.317168	2.314631	0.203260	
0.514423	0.464189	1.035194	0.543625	0.294907	2.541263	0.164284	
0.531250	0.357034	1.142699	0.518777	0.285677	3.200557	0.112596	
0.548077	0.268150	1.149889	0.462034	0.284754	4.247688	0.073405	
0.559568	0.223074	1.069654	0.408546	0.280930	5.037447	0.056075	
0.565432	0.205259	1.002309	0.378930	0.275826	5.375194	0.049949	
0.576923	0.176744	0.840169	0.320303	0.257922	5.837202	0.041273	
0.593750	0.150750	0.558986	0.240990	0.217438	5.769496	0.035409	
0.610577	0.136319	0.306925	0.178118	0.171698	5.038128	0.034265	
0.622068	0.130943	0.180543	0.147352	0.145218	4.436043	0.035076	
0.627932	0.129182	0.132481	0.135574	0.134440	4.162818	0.035722	
0.639423	0.126966	0.068843	0.119420	0.119119	3.752792	0.036977	
0.656250	0.125616	0.023625	0.107260	0.107225	3.414391	0.038354	
0.673077	0.125171	0.007404	0.102459	0.102455	3.274084	0.039029	
0.684568	0.125067	0.003024	0.101087	0.101086	3.233009	0.039243	
0.690432	0.125043	0.001926	0.100704	0.100704	3.221398	0.039306	
0.701923	0.125015	0.000765	0.100293	0.100293	3.208993	0.039373	
0.718750	0.125004	0.000172	0.100072	0.100072	3.202188	0.039412	
0.735577	0.125000	0.000042	0.100018	0.100018	3.200557	0.039421	
0.747068	0.125001	0.000009	0.100004	0.100004	3.200120	0.039423	
0.752932	0.125000	0.000006	0.100003	0.100003	3.200101	0.039423	
0.764423	0.125000	0.000002	0.100001	0.100001	3.200032	0.039424	
0.781250	0.125000	0.000000	0.100000	0.100000	3.200005	0.039424	
0.798077	0.125000	0.000000	0.100000	0.100000	3.200003	0.039424	
0.809568	0.125000	0.000000	0.100000	0.100000	3.199998	0.039424	
0.815432	0.125000	-0.000000	0.100000	0.100000	3.200001	0.039424	
0.826923	0.125000	0.000000	0.100000	0.100000	3.200000	0.039424	
0.843750	0.125000	-0.000000	0.100000	0.100000	3.200000	0.039424	
0.860577	0.125000	0.000000	0.100000	0.100000	3.200000	0.039424	
0.872068	0.125000	0.000000	0.100000	0.100000	3.200000	0.039424	
0.877932	0.125000	-0.000000	0.100000	0.100000	3.200000	0.039424	
0.889423	0.125000	0.000000	0.100000	0.100000	3.200000	0.039424	
0.906250	0.125000	-0.000000	0.100000	0.100000	3.200000	0.039424	
0.923077	0.125000	0.000000	0.100000	0.100000	3.200000	0.039424	
0.934568	0.125000	-0.000000	0.100000	0.100000	3.200000	0.039424	
0.940432	0.125000	-0.000000	0.100000	0.100000	3.200000	0.039424	
0.951923	0.125000	0.000000	0.100000	0.100000	3.200000	0.039424	
0.968750	0.125000	-0.000000	0.100000	0.100000	3.200000	0.039424	
0.985577	0.125000	0.000000	0.100000	0.100000	3.200000	0.039424	
0.997068	0.125000	-0.000000	0.100000	0.100000	3.200000	0.039424	
