TITLE = "DG1DBEX32-P5RK4w10000iv80"
VARIABLES = "x" "Density" "Velocity in x" "Energy" "Pressure" "Temperature" "Fugacity"
ZONE T = "Final Time 0.10"
I = 192, J = 1, K = 1, F = POINT

0.001055	1.297556	-0.000000	1.132901	1.132901	3.951358	0.289966	
0.005294	1.297556	-0.000001	1.132902	1.132902	3.951359	0.289966	
0.011897	1.297555	0.000001	1.132900	1.132900	3.951354	0.289966	
0.019353	1.297556	-0.000000	1.132901	1.132901	3.951358	0.289966	
0.025956	1.297556	-0.000001	1.132902	1.132902	3.951360	0.289966	
0.030195	1.297554	0.000003	1.132896	1.132896	3.951346	0.289966	
0.032305	1.297554	0.000002	1.132897	1.132897	3.951348	0.289966	
0.036544	1.297557	-0.000002	1.132903	1.132903	3.951363	0.289966	
0.043147	1.297556	-0.000001	1.132902	1.132902	3.951358	0.289966	
0.050603	1.297554	0.000003	1.132896	1.132896	3.951346	0.289966	
0.057206	1.297559	-0.000006	1.132910	1.132910	3.951378	0.289966	
0.061445	1.297557	-0.000002	1.132904	1.132904	3.951364	0.289966	
0.063555	1.297551	0.000008	1.132888	1.132888	3.951327	0.289966	
0.067794	1.297553	0.000005	1.132893	1.132893	3.951338	0.289966	
0.074397	1.297561	-0.000009	1.132914	1.132914	3.951387	0.289966	
0.081853	1.297552	0.000007	1.132890	1.132890	3.951332	0.289966	
0.088456	1.297552	0.000007	1.132890	1.132890	3.951331	0.289966	
0.092695	1.297574	-0.000031	1.132947	1.132947	3.951466	0.289966	
0.094805	1.297570	-0.000026	1.132939	1.132939	3.951444	0.289966	
0.099044	1.297545	0.000020	1.132872	1.132872	3.951289	0.289966	
0.105647	1.297550	0.000010	1.132886	1.132886	3.951322	0.289966	
0.113103	1.297577	-0.000038	1.132957	1.132957	3.951489	0.289966	
0.119706	1.297525	0.000055	1.132820	1.132820	3.951167	0.289966	
0.123945	1.297524	0.000055	1.132820	1.132820	3.951166	0.289966	
0.126055	1.297576	-0.000036	1.132954	1.132954	3.951482	0.289966	
0.130294	1.297605	-0.000086	1.133028	1.133028	3.951654	0.289966	
0.136897	1.297520	0.000063	1.132808	1.132808	3.951140	0.289966	
0.144353	1.297543	0.000021	1.132869	1.132869	3.951282	0.289966	
0.150956	1.297664	-0.000190	1.133182	1.133182	3.952015	0.289966	
0.155195	1.297501	0.000094	1.132761	1.132761	3.951024	0.289966	
0.157305	1.297398	0.000279	1.132488	1.132488	3.950398	0.289966	
0.161544	1.297489	0.000117	1.132728	1.132728	3.950951	0.289966	
0.168147	1.297710	-0.000272	1.133304	1.133304	3.952296	0.289966	
0.175603	1.297454	0.000180	1.132633	1.132633	3.950737	0.289966	
0.182206	1.297378	0.000311	1.132441	1.132441	3.950274	0.289966	
0.186445	1.297889	-0.000581	1.133763	1.133763	3.953388	0.289966	
0.188555	1.297991	-0.000771	1.134044	1.134043	3.954007	0.289966	
0.192794	1.297574	-0.000031	1.132945	1.132945	3.951465	0.289966	
0.199397	1.297159	0.000700	1.131864	1.131864	3.948938	0.289966	
0.206853	1.297958	-0.000710	1.133954	1.133954	3.953805	0.289966	
0.213456	1.297881	-0.000569	1.133743	1.133743	3.953339	0.289966	
0.217695	1.296728	0.001445	1.130761	1.130760	3.946318	0.289966	
0.219805	1.296567	0.001754	1.130308	1.130306	3.945335	0.289966	
0.224044	1.297487	0.000116	1.132725	1.132725	3.950936	0.289966	
0.230647	1.298702	-0.002015	1.135900	1.135897	3.958339	0.289966	
0.238103	1.297010	0.000962	1.131469	1.131469	3.948033	0.289966	
0.244706	1.296243	0.002301	1.129495	1.129491	3.943365	0.289966	
0.248945	1.298606	-0.001815	1.135617	1.135615	3.957757	0.289966	
0.251055	1.299517	-0.003473	1.138077	1.138069	3.963313	0.289966	
0.255294	1.299726	-0.003826	1.138576	1.138567	3.964588	0.289966	
0.261897	1.293213	0.007665	1.121590	1.121552	3.924953	0.289966	
0.269353	1.278018	0.034473	1.083246	1.082487	3.833260	0.289966	
0.275956	1.262084	0.062554	1.044976	1.042507	3.738269	0.289966	
0.280195	1.251554	0.081133	1.020752	1.016633	3.676154	0.289966	
0.282305	1.246214	0.090576	1.008783	1.003671	3.644850	0.289966	
0.286544	1.235412	0.109632	0.985224	0.977799	3.581934	0.289966	
0.293147	1.218350	0.139707	0.949733	0.937843	3.483678	0.289966	
0.300603	1.198841	0.174127	0.911685	0.893511	3.373010	0.289966	
0.307206	1.181430	0.204843	0.879929	0.855142	3.275744	0.289966	
0.311445	1.170218	0.224612	0.860545	0.831025	3.213864	0.289966	
0.313555	1.164620	0.234488	0.851176	0.819158	3.183192	0.289966	
0.317794	1.153368	0.254335	0.832947	0.795643	3.121979	0.289966	
0.324397	1.135797	0.285337	0.806068	0.759831	3.027580	0.289966	
0.331853	1.115877	0.320477	0.777852	0.720549	2.922312	0.289966	
0.338456	1.098141	0.351745	0.754669	0.686736	2.830158	0.289966	
0.342695	1.086756	0.371900	0.740658	0.665504	2.771406	0.289981	
0.344805	1.081047	0.381983	0.733935	0.655067	2.742363	0.289981	
0.349044	1.069483	0.402327	0.720918	0.634361	2.684369	0.289966	
0.355647	1.051416	0.434171	0.701850	0.602752	2.594439	0.289966	
0.363103	1.030835	0.470480	0.682131	0.568043	2.493861	0.289966	
0.369706	1.012458	0.502902	0.666235	0.538204	2.405737	0.289966	
0.373945	1.000808	0.523702	0.656791	0.519548	2.349437	0.290027	
0.376055	0.994993	0.534078	0.652300	0.510395	2.321594	0.290057	
0.380294	0.982834	0.555151	0.643775	0.492324	2.267016	0.289966	
0.386897	0.964364	0.587737	0.631656	0.465093	2.182612	0.289966	
0.394353	0.943749	0.624104	0.619695	0.435897	2.090293	0.289966	
0.400956	0.925881	0.655818	0.610486	0.411376	2.010816	0.290027	
0.405195	0.914561	0.675954	0.605235	0.396297	1.961162	0.290072	
0.407305	0.908990	0.685984	0.602763	0.388890	1.936308	0.290132	
0.411544	0.897105	0.706700	0.598101	0.374083	1.887267	0.290057	
0.418147	0.878662	0.738962	0.591641	0.351738	1.811673	0.289981	
0.425603	0.858363	0.774807	0.585476	0.327827	1.728471	0.290012	
0.432206	0.839658	0.808008	0.580741	0.306644	1.652857	0.290087	
0.436445	0.827281	0.829959	0.578091	0.293162	1.603846	0.290132	
0.438555	0.821674	0.839985	0.576996	0.287120	1.581544	0.290178	
0.442794	0.814445	0.852688	0.575765	0.279683	1.554252	0.290148	
0.449397	0.813483	0.854221	0.575685	0.278888	1.551621	0.290072	
0.456853	0.810055	0.860648	0.574963	0.274953	1.536314	0.290238	
0.463456	0.792903	0.891444	0.572360	0.257311	1.469000	0.290465	
0.467695	0.783413	0.907668	0.571364	0.248652	1.436728	0.290253	
0.469805	0.783818	0.906291	0.571491	0.249591	1.441094	0.290027	
0.474044	0.795389	0.885950	0.572985	0.260831	1.484157	0.290012	
0.480647	0.810820	0.857761	0.575333	0.277051	1.546218	0.289725	
0.488103	0.814586	0.852499	0.575683	0.279681	1.553964	0.290208	
0.494706	0.810854	0.858404	0.575033	0.276291	1.542225	0.290027	
0.498945	0.809054	0.860156	0.574882	0.275585	1.541343	0.289589	
0.501055	0.808536	0.861065	0.574826	0.275089	1.539372	0.289589	
0.505294	0.810450	0.858653	0.575040	0.276273	1.542748	0.289876	
0.511897	0.814879	0.852873	0.575720	0.279352	1.551767	0.290450	
0.519353	0.814553	0.853476	0.575849	0.279180	1.551557	0.290374	
0.525956	0.809541	0.858947	0.574688	0.276052	1.542993	0.289604	
0.530195	0.808519	0.858485	0.574165	0.276227	1.545493	0.289136	
0.532305	0.808714	0.857727	0.574119	0.276635	1.547274	0.289060	
0.536544	0.811712	0.854218	0.574872	0.278723	1.553563	0.289438	
0.543147	0.814275	0.854238	0.575878	0.278781	1.549878	0.290419	
0.550603	0.812146	0.859924	0.575558	0.275280	1.534813	0.290933	
0.557206	0.810418	0.856610	0.574316	0.276982	1.546546	0.289589	
0.561445	0.808028	0.852893	0.573116	0.279225	1.562136	0.287791	
0.563555	0.807511	0.854083	0.573602	0.279080	1.562231	0.287640	
0.567794	0.800153	0.855719	0.570984	0.278025	1.568569	0.285133	
0.574397	0.827379	0.857322	0.581381	0.277318	1.521817	0.296144	
0.581853	0.723554	0.857556	0.543275	0.277223	1.703281	0.254667	
0.588456	0.457815	0.861599	0.449457	0.279527	2.581562	0.144100	
0.592695	0.287691	0.875022	0.387583	0.277446	3.968168	0.077005	
0.594805	0.239070	0.869556	0.368579	0.278195	4.755687	0.059242	
0.599044	0.188438	0.870148	0.347544	0.276205	5.953233	0.042265	
0.605647	0.170841	0.857479	0.340154	0.277347	6.579475	0.036600	
0.613103	0.171022	0.858402	0.339950	0.276941	6.565558	0.036676	
0.619706	0.173827	0.863831	0.340381	0.275526	6.424437	0.037658	
0.623945	0.175195	0.870826	0.339838	0.273409	6.331243	0.038217	
0.626055	0.174896	0.867201	0.339991	0.274227	6.356060	0.038081	
0.630294	0.174836	0.857085	0.341451	0.277234	6.430138	0.037854	
0.636897	0.177177	0.837855	0.342690	0.280501	6.423014	0.038368	
0.644353	0.177388	0.845132	0.342572	0.279223	6.386550	0.038519	
0.650956	0.174439	0.865332	0.341487	0.276177	6.422015	0.037794	
0.655195	0.173588	0.862268	0.341710	0.277178	6.475992	0.037461	
0.657305	0.173879	0.858494	0.341428	0.277352	6.465499	0.037552	
0.661544	0.174985	0.847947	0.340307	0.277399	6.430538	0.037884	
0.668147	0.176624	0.845810	0.339159	0.275981	6.336757	0.038504	
0.675603	0.174728	0.865257	0.340232	0.274825	6.380229	0.037975	
0.682206	0.174454	0.867359	0.342697	0.277075	6.438932	0.037748	
0.686445	0.176162	0.854693	0.344670	0.280327	6.453660	0.038066	
0.688555	0.177213	0.849333	0.345425	0.281507	6.441253	0.038322	
0.692794	0.179227	0.841589	0.345858	0.282388	6.390104	0.038896	
0.699397	0.176264	0.851659	0.343131	0.279207	6.424442	0.038171	
0.706853	0.174160	0.864655	0.340357	0.275253	6.406721	0.037779	
0.713456	0.177079	0.856599	0.342229	0.277262	6.348941	0.038564	
0.717695	0.178837	0.851712	0.343406	0.278541	6.316814	0.039032	
0.719805	0.178586	0.851926	0.343384	0.278578	6.329290	0.038942	
0.724044	0.175393	0.859348	0.342247	0.277485	6.418374	0.038005	
0.730647	0.173388	0.864932	0.340575	0.275718	6.445001	0.037507	
0.738103	0.178269	0.858037	0.343538	0.277915	6.321948	0.038896	
0.744706	0.178958	0.846176	0.345795	0.281727	6.386264	0.038851	
0.748945	0.175725	0.838283	0.345075	0.283332	6.538489	0.037733	
0.751055	0.173647	0.842499	0.343304	0.281676	6.578079	0.037190	
0.755294	0.172912	0.857352	0.340984	0.277434	6.506229	0.037235	
0.761897	0.179126	0.862756	0.343852	0.277186	6.277144	0.039214	
0.769353	0.177335	0.856305	0.343517	0.278501	6.372409	0.038549	
0.775956	0.171663	0.860304	0.342090	0.278564	6.575910	0.036782	
0.780195	0.173050	0.856393	0.344140	0.280681	6.576763	0.037069	
0.782305	0.175097	0.873658	0.342846	0.276022	6.391544	0.038020	
0.786544	0.181542	0.871911	0.345029	0.276022	6.170528	0.040059	
0.793147	0.176980	0.855617	0.346474	0.281692	6.455708	0.038232	
0.800603	0.171542	0.857849	0.345430	0.282311	6.667483	0.036510	
0.807206	0.179764	0.842165	0.348880	0.285132	6.433590	0.038881	
0.811445	0.185649	0.864609	0.343404	0.274013	5.992642	0.041525	
0.813555	0.181957	0.872318	0.330038	0.260809	5.821956	0.041298	
0.817794	0.170914	0.890940	0.357410	0.289577	6.867149	0.035860	
0.824397	0.169770	0.798485	0.320110	0.265989	6.351046	0.037008	
0.831853	0.132993	0.059507	0.105362	0.105126	3.208507	0.040679	
0.838456	0.124670	-0.067564	0.096641	0.096356	3.134331	0.038640	
0.842695	0.149809	0.247241	0.143859	0.139280	3.776543	0.042189	
0.844805	0.124562	-0.061784	0.094802	0.094565	3.079181	0.038942	
0.849044	0.122532	-0.079879	0.091700	0.091309	3.022856	0.038670	
0.855647	0.132939	0.057057	0.109719	0.109503	3.342473	0.039863	
0.863103	0.126549	-0.033416	0.097016	0.096945	3.108311	0.039365	
0.869706	0.130624	0.023441	0.104784	0.104748	3.254930	0.039697	
0.873945	0.130088	0.027394	0.105090	0.105041	3.276851	0.039410	
0.876055	0.125962	-0.053405	0.095091	0.094911	3.057777	0.039501	
0.880294	0.129245	0.005112	0.102118	0.102116	3.206625	0.039576	
0.886897	0.128960	0.002180	0.101732	0.101732	3.200046	0.039531	
0.894353	0.128736	-0.003200	0.101164	0.101163	3.188930	0.039531	
0.900956	0.129193	0.005407	0.102259	0.102257	3.211616	0.039531	
0.905195	0.128578	-0.005355	0.100824	0.100822	3.181130	0.039531	
0.907305	0.128543	-0.005880	0.100720	0.100718	3.179396	0.039531	
0.911544	0.129105	0.003578	0.102045	0.102044	3.207235	0.039531	
0.918147	0.128809	-0.001360	0.101350	0.101350	3.192544	0.039531	
0.925603	0.128923	0.000538	0.101618	0.101618	3.198224	0.039531	
0.932206	0.128906	0.000257	0.101576	0.101576	3.197345	0.039531	
0.936445	0.128781	-0.001832	0.101288	0.101287	3.191157	0.039531	
0.938555	0.128919	0.000452	0.101603	0.101603	3.198012	0.039531	
0.942794	0.128922	0.000537	0.101617	0.101616	3.198164	0.039531	
0.949397	0.128871	-0.000344	0.101493	0.101493	3.195600	0.039531	
0.956853	0.128904	0.000231	0.101574	0.101574	3.197278	0.039531	
0.963456	0.128882	-0.000144	0.101521	0.101521	3.196186	0.039531	
0.967695	0.128877	-0.000223	0.101510	0.101510	3.195930	0.039531	
0.969805	0.128912	0.000345	0.101590	0.101589	3.197642	0.039531	
0.974044	0.128890	-0.000016	0.101539	0.101539	3.196548	0.039531	
0.980647	0.128889	-0.000029	0.101537	0.101537	3.196520	0.039531	
0.988103	0.128893	0.000037	0.101546	0.101546	3.196709	0.039531	
0.994706	0.128888	-0.000050	0.101534	0.101534	3.196451	0.039531	
0.998945	0.128892	0.000031	0.101545	0.101545	3.196684	0.039531	
