TITLE = "DG1DBEX32-P4RK6w10iv80"
VARIABLES = "x" "Density" "Velocity in x" "Energy" "Pressure" "Temperature" "Fugacity"
ZONE T = "Final Time 0.10"
I = 160, J = 1, K = 1, F = POINT

0.001466	1.260380	0.000467	1.116967	1.116967	3.994528	0.282233	
0.007211	1.260376	0.000502	1.116868	1.116868	3.994501	0.282233	
0.015625	1.260336	0.000655	1.116458	1.116457	3.993161	0.282263	
0.024039	1.260268	0.000898	1.115797	1.115796	3.991102	0.282308	
0.029784	1.260245	0.000994	1.115506	1.115505	3.990417	0.282323	
0.032716	1.260243	0.001014	1.115427	1.115426	3.989857	0.282338	
0.038461	1.260201	0.001162	1.115024	1.115023	3.988507	0.282369	
0.046875	1.260084	0.001549	1.114010	1.114008	3.985599	0.282429	
0.055289	1.259978	0.001921	1.112996	1.112993	3.982216	0.282505	
0.061034	1.259946	0.002055	1.112581	1.112578	3.980932	0.282535	
0.063966	1.259908	0.002182	1.112246	1.112243	3.980155	0.282550	
0.069711	1.259766	0.002626	1.111150	1.111145	3.976551	0.282625	
0.078125	1.259540	0.003344	1.109343	1.109336	3.971347	0.282731	
0.086539	1.259388	0.003876	1.107917	1.107907	3.966610	0.282837	
0.092284	1.259253	0.004309	1.106831	1.106819	3.963608	0.282897	
0.095216	1.259110	0.004728	1.105865	1.105851	3.960551	0.282958	
0.100961	1.258811	0.005611	1.103804	1.103784	3.954374	0.283079	
0.109375	1.258467	0.006690	1.101167	1.101139	3.946319	0.283245	
0.117789	1.258138	0.007720	1.098677	1.098639	3.938370	0.283411	
0.123534	1.257687	0.008975	1.095930	1.095880	3.930214	0.283562	
0.126466	1.257388	0.009794	1.094160	1.094100	3.925150	0.283653	
0.132211	1.256947	0.011084	1.091238	1.091160	3.916551	0.283819	
0.140625	1.256387	0.012759	1.087394	1.087292	3.904590	0.284060	
0.149039	1.255489	0.015186	1.082288	1.082143	3.889520	0.284332	
0.154784	1.254542	0.017644	1.077321	1.077125	3.874729	0.284589	
0.157716	1.254149	0.018718	1.075061	1.074841	3.868114	0.284710	
0.163461	1.253548	0.020448	1.071305	1.071043	3.856581	0.284936	
0.171875	1.252327	0.023664	1.064818	1.064467	3.837647	0.285269	
0.180289	1.250352	0.028516	1.055660	1.055151	3.810605	0.285707	
0.186034	1.249023	0.031882	1.049195	1.048560	3.791758	0.286024	
0.188966	1.248592	0.033096	1.046703	1.046020	3.784036	0.286175	
0.194711	1.247426	0.036055	1.041078	1.040267	3.767324	0.286462	
0.203125	1.244733	0.042338	1.030031	1.028916	3.734955	0.286945	
0.211539	1.241585	0.049678	1.017309	1.015777	3.697651	0.287504	
0.217284	1.240057	0.053528	1.010310	1.008533	3.676691	0.287867	
0.220216	1.239217	0.055561	1.006760	1.004847	3.666299	0.288033	
0.225961	1.236563	0.061359	0.997484	0.995156	3.639372	0.288380	
0.234375	1.231921	0.071397	0.981809	0.978669	3.593279	0.288969	
0.242789	1.227999	0.080294	0.967640	0.963682	3.550916	0.289589	
0.248534	1.225487	0.085902	0.958966	0.954444	3.524617	0.289966	
0.251466	1.223357	0.090179	0.952970	0.947995	3.507221	0.290132	
0.257211	1.218651	0.099583	0.940017	0.933974	3.469165	0.290495	
0.265625	1.212634	0.112124	0.922500	0.914877	3.416276	0.291114	
0.274039	1.207419	0.123112	0.907394	0.898244	3.369876	0.291688	
0.279784	1.201856	0.133623	0.894565	0.883835	3.331360	0.291945	
0.282716	1.198142	0.140435	0.886595	0.874780	3.307725	0.292051	
0.288461	1.192351	0.151680	0.873012	0.859296	3.265839	0.292398	
0.296875	1.185380	0.165641	0.856187	0.839925	3.211534	0.292972	
0.305289	1.176053	0.182609	0.838036	0.818428	3.154916	0.293199	
0.311034	1.166637	0.198910	0.822049	0.798970	3.104598	0.293199	
0.313966	1.162795	0.205946	0.814937	0.790277	3.081326	0.293304	
0.319711	1.157155	0.216900	0.803554	0.776334	3.042227	0.293652	
0.328125	1.146781	0.235238	0.786628	0.754898	2.985161	0.293758	
0.336539	1.130894	0.261316	0.765598	0.726986	2.914189	0.293320	
0.342284	1.120976	0.278279	0.751989	0.708585	2.865574	0.293229	
0.345216	1.118300	0.283590	0.747292	0.702323	2.847381	0.293410	
0.350961	1.110593	0.296829	0.737248	0.688322	2.809755	0.293350	
0.359375	1.092679	0.324713	0.719331	0.661725	2.744113	0.292338	
0.367789	1.073568	0.355051	0.700997	0.633330	2.671594	0.291371	
0.373534	1.066643	0.367491	0.692912	0.620887	2.636185	0.291416	
0.376466	1.062279	0.374561	0.688932	0.614415	2.619185	0.291220	
0.382211	1.047430	0.396251	0.678778	0.596546	2.577210	0.289861	
0.390625	1.023550	0.431668	0.663443	0.568080	2.508947	0.287685	
0.399039	1.007790	0.456763	0.652526	0.547397	2.453953	0.286689	
0.404784	0.998307	0.471295	0.647097	0.536226	2.425897	0.285858	
0.407716	0.987666	0.485777	0.642872	0.526337	2.404801	0.284438	
0.413461	0.966552	0.514900	0.634889	0.506762	2.362638	0.281598	
0.421875	0.945735	0.545979	0.626305	0.485347	2.309763	0.279287	
0.430289	0.930331	0.568315	0.621053	0.470813	2.275430	0.277324	
0.436034	0.907118	0.598638	0.616327	0.453786	2.244793	0.273291	
0.438966	0.893883	0.616443	0.613751	0.443912	2.225917	0.271025	
0.444711	0.877290	0.639738	0.610303	0.430781	2.198066	0.268351	
0.453125	0.861118	0.662413	0.607324	0.418399	2.171837	0.265663	
0.461539	0.832720	0.698647	0.604715	0.401487	2.148942	0.259712	
0.467284	0.800978	0.739160	0.602614	0.383803	2.128230	0.252673	
0.470216	0.794587	0.747802	0.602131	0.379962	2.122454	0.251313	
0.475961	0.787829	0.757491	0.601458	0.375433	2.113936	0.249984	
0.484375	0.761910	0.788645	0.600823	0.363884	2.111608	0.243368	
0.492789	0.718773	0.842069	0.600210	0.345376	2.112926	0.231919	
0.498534	0.706205	0.856870	0.600041	0.340784	2.118424	0.228309	
0.501466	0.701559	0.862171	0.599963	0.339216	2.121272	0.226934	
0.507211	0.688839	0.876839	0.599795	0.334989	2.129538	0.223143	
0.515625	0.645095	0.927085	0.599167	0.321941	2.171707	0.209458	
0.524039	0.617865	0.958754	0.598509	0.314536	2.206193	0.200592	
0.529784	0.610116	0.964767	0.597808	0.313868	2.226759	0.197662	
0.532716	0.603137	0.971381	0.597306	0.312752	2.241696	0.195169	
0.538461	0.570032	1.007548	0.595154	0.305819	2.307663	0.183614	
0.546875	0.539266	1.040312	0.592439	0.300630	2.386037	0.172452	
0.555289	0.520548	1.056021	0.589325	0.299072	2.451339	0.165232	
0.561034	0.502059	1.071578	0.585748	0.297496	2.520322	0.158102	
0.563966	0.487802	1.084853	0.583102	0.296054	2.575346	0.152650	
0.569711	0.462614	1.109575	0.578235	0.293460	2.680956	0.143013	
0.578125	0.444313	1.122260	0.572773	0.292974	2.778122	0.135732	
0.586539	0.420669	1.135550	0.563977	0.292756	2.920615	0.126292	
0.592284	0.397720	1.152395	0.555893	0.291804	3.067946	0.117335	
0.595216	0.386194	1.160929	0.551636	0.291388	3.149569	0.112849	
0.600961	0.375105	1.164782	0.546191	0.291735	3.240355	0.108438	
0.609375	0.357242	1.166762	0.535371	0.292208	3.398569	0.101400	
0.617789	0.331647	1.172507	0.520369	0.292399	3.648469	0.091551	
0.623534	0.315907	1.175075	0.510622	0.292520	3.823007	0.085585	
0.626466	0.311184	1.173474	0.506910	0.292654	3.881100	0.083787	
0.632211	0.303647	1.166515	0.499440	0.292845	3.974873	0.080963	
0.640625	0.284008	1.155343	0.482339	0.292790	4.237941	0.073743	
0.649039	0.266043	1.142279	0.466094	0.292528	4.507434	0.067308	
0.654784	0.258518	1.130759	0.457420	0.292147	4.629539	0.064665	
0.657716	0.255978	1.123854	0.453482	0.291826	4.668355	0.063804	
0.663461	0.246435	1.105832	0.441506	0.290827	4.826746	0.060556	
0.671875	0.231406	1.076427	0.423249	0.289184	5.100156	0.055527	
0.680289	0.222114	1.049067	0.409413	0.287190	5.272416	0.052536	
0.686034	0.217282	1.028528	0.400280	0.285352	5.350824	0.051071	
0.688966	0.213869	1.015171	0.394356	0.284152	5.410652	0.050029	
0.694711	0.205379	0.983623	0.380816	0.281463	5.576228	0.047415	
0.703125	0.197459	0.946586	0.366337	0.277872	5.723623	0.045074	
0.711539	0.191865	0.910530	0.353178	0.273644	5.793894	0.043579	
0.717284	0.187000	0.878700	0.342081	0.269889	5.862664	0.042265	
0.720216	0.183763	0.858611	0.335376	0.267640	5.915729	0.041374	
0.725961	0.179105	0.826245	0.324954	0.263818	5.978107	0.040150	
0.734375	0.175086	0.789246	0.313100	0.258568	5.992441	0.039229	
0.742789	0.170140	0.741610	0.298518	0.251730	6.000362	0.038126	
0.748534	0.166095	0.702870	0.287350	0.246322	6.013321	0.037205	
0.751466	0.164277	0.684472	0.282181	0.243699	6.012056	0.036812	
0.757211	0.162295	0.659614	0.274909	0.239602	5.983264	0.036465	
0.765625	0.159008	0.615889	0.262347	0.232190	5.918150	0.035936	
0.774039	0.154850	0.561594	0.247729	0.223310	5.842112	0.035241	
0.779784	0.152432	0.527733	0.238823	0.217597	5.782422	0.034879	
0.782716	0.151678	0.515141	0.235344	0.215218	5.745766	0.034818	
0.788461	0.150268	0.489927	0.228283	0.210249	5.669671	0.034727	
0.796875	0.147192	0.438967	0.215032	0.200851	5.528327	0.034456	
0.805289	0.144453	0.391203	0.202941	0.191887	5.377473	0.034289	
0.811034	0.143196	0.366095	0.196342	0.186746	5.279565	0.034305	
0.813966	0.142703	0.354972	0.193287	0.184297	5.229121	0.034350	
0.819711	0.141238	0.325079	0.185625	0.178162	5.108468	0.034395	
0.828125	0.139022	0.279946	0.174509	0.169062	4.927195	0.034471	
0.836539	0.137530	0.246139	0.165925	0.161759	4.761925	0.034682	
0.842284	0.136741	0.226391	0.160720	0.157216	4.657397	0.034863	
0.845216	0.136254	0.214644	0.157730	0.154591	4.595645	0.034969	
0.850961	0.135125	0.188437	0.151352	0.148953	4.464267	0.035181	
0.859375	0.133978	0.160031	0.144291	0.142575	4.312464	0.035483	
0.867789	0.133197	0.138552	0.138667	0.137389	4.177934	0.035830	
0.873534	0.132622	0.122871	0.134644	0.133643	4.085164	0.036072	
0.876466	0.132259	0.113492	0.132348	0.131496	4.028170	0.036223	
0.882211	0.131696	0.098506	0.128650	0.128011	3.939747	0.036465	
0.890625	0.131226	0.084551	0.124942	0.124473	3.845996	0.036767	
0.899039	0.130768	0.070752	0.121274	0.120947	3.749229	0.037099	
0.904784	0.130403	0.060269	0.118607	0.118370	3.678944	0.037341	
0.907716	0.130229	0.055317	0.117362	0.117162	3.647902	0.037446	
0.913461	0.130044	0.049479	0.115782	0.115623	3.604556	0.037612	
0.921875	0.129828	0.042240	0.113733	0.113617	3.548528	0.037839	
0.930289	0.129551	0.033575	0.111409	0.111336	3.484645	0.038096	
0.936034	0.129381	0.028299	0.110016	0.109964	3.447307	0.038247	
0.938966	0.129331	0.026622	0.109546	0.109500	3.433487	0.038307	
0.944711	0.129277	0.024505	0.108885	0.108847	3.413984	0.038398	
0.953125	0.129142	0.019877	0.107560	0.107535	3.376767	0.038564	
0.961539	0.129003	0.015287	0.106292	0.106277	3.342538	0.038715	
0.967284	0.128949	0.013381	0.105741	0.105730	3.326382	0.038791	
0.970216	0.128941	0.012957	0.105593	0.105582	3.320634	0.038821	
0.975961	0.128908	0.011626	0.105173	0.105165	3.308339	0.038881	
0.984375	0.128828	0.008771	0.104351	0.104346	3.285795	0.038987	
0.992789	0.128777	0.006902	0.103802	0.103799	3.270146	0.039063	
0.998534	0.128765	0.006358	0.103616	0.103614	3.264363	0.039093	
