TITLE = "DG1DFDX16-P4RK4w10000iv80"
VARIABLES = "x" "Density" "Velocity in x" "Energy" "Pressure" "Temperature" "Fugacity"
ZONE T = "Final Time 0.10"
I = 80, J = 1, K = 1, F = POINT

0.002932	0.816671	-0.000230	0.901412	0.901412	4.060596	0.271372	
0.014423	0.816717	-0.000365	0.901563	0.901563	4.061046	0.271372	
0.031250	0.816468	0.000425	0.900739	0.900739	4.058575	0.271372	
0.048077	0.816601	0.000007	0.901180	0.901180	4.059893	0.271372	
0.059568	0.817068	-0.001456	0.902721	0.902720	4.064544	0.271372	
0.065432	0.816774	-0.000543	0.901759	0.901759	4.061620	0.271372	
0.076923	0.816198	0.001282	0.899846	0.899846	4.055894	0.271372	
0.093750	0.816614	-0.000036	0.901227	0.901227	4.060029	0.271372	
0.110577	0.817408	-0.002526	0.903852	0.903849	4.067929	0.271372	
0.122068	0.815993	0.001910	0.899182	0.899180	4.053854	0.271372	
0.127932	0.815201	0.004429	0.896554	0.896546	4.045989	0.271372	
0.139423	0.816237	0.001159	0.899978	0.899977	4.056276	0.271372	
0.156250	0.818137	-0.004831	0.906284	0.906274	4.075189	0.271372	
0.173077	0.815910	0.002194	0.898889	0.898887	4.053025	0.271372	
0.184568	0.813671	0.009085	0.891736	0.891703	4.031572	0.271342	
0.190432	0.815193	0.004576	0.896515	0.896507	4.045905	0.271372	
0.201923	0.819200	-0.008196	0.909844	0.909816	4.085783	0.271372	
0.218750	0.819194	-0.008096	0.909809	0.909782	4.085722	0.271372	
0.235577	0.806108	0.033029	0.867323	0.866883	3.956230	0.271372	
0.247068	0.792363	0.076884	0.824967	0.822626	3.819226	0.271508	
0.252932	0.785015	0.100408	0.803764	0.799807	3.748016	0.271539	
0.264423	0.769322	0.148933	0.762072	0.753540	3.603392	0.271372	
0.281250	0.745981	0.221866	0.705374	0.687013	3.388056	0.271372	
0.298077	0.722292	0.296943	0.655467	0.623623	3.176297	0.271372	
0.309568	0.705896	0.349694	0.624851	0.581690	3.031447	0.271493	
0.315432	0.697609	0.376559	0.610251	0.560792	2.957067	0.271690	
0.326923	0.680155	0.430092	0.583624	0.520717	2.816507	0.271372	
0.343750	0.654717	0.510078	0.549628	0.464456	2.609768	0.271372	
0.360577	0.628771	0.592182	0.521457	0.411209	2.405888	0.271448	
0.372068	0.610280	0.649919	0.505281	0.376392	2.269027	0.271267	
0.377932	0.601114	0.678886	0.498090	0.359568	2.200555	0.271327	
0.389423	0.583892	0.734030	0.486062	0.328762	2.071192	0.271720	
0.406250	0.558577	0.812308	0.472684	0.288397	1.899416	0.271388	
0.423077	0.540438	0.871401	0.465463	0.260276	1.771378	0.271992	
0.434568	0.538675	0.878267	0.465150	0.257396	1.757528	0.272203	
0.440432	0.540927	0.870893	0.466082	0.260948	1.774417	0.272007	
0.451923	0.543939	0.858099	0.466997	0.266737	1.804232	0.271116	
0.468750	0.545386	0.851832	0.467443	0.269572	1.818645	0.270693	
0.485577	0.543536	0.863289	0.466511	0.263971	1.786039	0.272505	
0.497068	0.541082	0.872319	0.465578	0.259712	1.764977	0.272958	
0.502932	0.542142	0.866716	0.465805	0.262178	1.778553	0.272354	
0.514423	0.548092	0.854723	0.467224	0.267020	1.790693	0.274786	
0.531250	0.537166	0.855409	0.463146	0.266617	1.829185	0.264983	
0.548077	0.547543	0.861598	0.467885	0.264650	1.776042	0.275798	
0.559568	0.552513	0.868011	0.470484	0.262340	1.741818	0.282006	
0.565432	0.544447	0.875286	0.469107	0.260550	1.758617	0.275556	
0.576923	0.497782	0.854247	0.449690	0.268065	2.003957	0.229910	
0.593750	0.273397	0.861640	0.370854	0.269366	3.831359	0.083410	
0.610577	0.145015	0.878284	0.319187	0.263255	7.185397	0.031193	
0.622068	0.153221	0.850367	0.322114	0.266716	6.883981	0.033731	
0.627932	0.172753	0.855952	0.329997	0.266713	6.087400	0.040633	
0.639423	0.172540	0.867716	0.329228	0.264273	6.041851	0.040739	
0.656250	0.160548	0.876016	0.320639	0.259036	6.372576	0.036812	
0.673077	0.167467	0.837992	0.324122	0.265322	6.251789	0.038821	
0.684568	0.167709	0.843980	0.327709	0.267979	6.308003	0.038700	
0.690432	0.160632	0.852541	0.328190	0.269814	6.637003	0.036072	
0.701923	0.164036	0.859237	0.331968	0.271415	6.531756	0.037159	
0.718750	0.170005	0.874993	0.331809	0.266730	6.191737	0.039621	
0.735577	0.160285	0.870086	0.326330	0.265658	6.549374	0.036238	
0.747068	0.159726	0.846909	0.327487	0.270205	6.681886	0.035739	
0.752932	0.168647	0.861633	0.325946	0.263343	6.161622	0.039395	
0.764423	0.171921	0.884728	0.326632	0.259347	5.951245	0.040905	
0.781250	0.156923	0.825754	0.321070	0.267569	6.741018	0.034939	
0.798077	0.167413	0.819723	0.321550	0.265304	6.252510	0.038806	
0.809568	0.174878	0.909915	0.326589	0.254194	5.730817	0.042446	
0.815432	0.174720	0.887862	0.364069	0.295203	6.668029	0.039229	
0.826923	0.144719	0.704429	0.269526	0.233620	6.384717	0.033066	
0.843750	0.120724	-0.054033	0.077642	0.077465	2.528207	0.044168	
0.860577	0.122932	0.044297	0.114094	0.113974	3.659732	0.037205	
0.872068	0.131304	0.178775	0.119476	0.117378	3.526905	0.040573	
0.877932	0.111017	-0.234333	0.069759	0.066711	2.369779	0.041887	
0.889423	0.120991	0.017839	0.102391	0.102372	3.338744	0.038368	
0.906250	0.122350	0.016771	0.100041	0.100024	3.226121	0.039501	
0.923077	0.119209	-0.028583	0.094697	0.094649	3.132156	0.039047	
0.934568	0.123342	0.035634	0.103237	0.103158	3.300725	0.039365	
0.940432	0.121845	0.015929	0.100868	0.100852	3.267260	0.039078	
0.951923	0.120130	-0.015459	0.096198	0.096184	3.159303	0.039183	
0.968750	0.121451	0.008051	0.099384	0.099380	3.229146	0.039183	
0.985577	0.120827	-0.002828	0.097864	0.097864	3.196073	0.039183	
0.997068	0.120701	-0.005255	0.097556	0.097554	3.189379	0.039183	
