TITLE = "DG1DFDX64-P3RK4w10iv80"
VARIABLES = "x" "Density" "Velocity in x" "Energy" "Pressure" "Temperature" "Fugacity"
ZONE T = "Final Time 0.10"
I = 256, J = 1, K = 1, F = POINT

0.001085	0.837305	0.001012	0.910926	0.910925	3.990517	0.282414	
0.005156	0.837310	0.001011	0.910969	0.910969	3.990559	0.282414	
0.010469	0.837306	0.001057	0.910925	0.910924	3.990521	0.282414	
0.014540	0.837275	0.001243	0.910594	0.910594	3.989151	0.282459	
0.016710	0.837246	0.001407	0.910292	0.910291	3.987802	0.282505	
0.020781	0.837188	0.001735	0.909688	0.909687	3.985457	0.282580	
0.026094	0.837131	0.002055	0.909106	0.909104	3.983119	0.282656	
0.030165	0.837121	0.002111	0.909019	0.909017	3.982667	0.282671	
0.032335	0.837124	0.002096	0.909055	0.909053	3.982696	0.282671	
0.036406	0.837114	0.002150	0.908969	0.908967	3.982599	0.282671	
0.041719	0.837045	0.002511	0.908328	0.908325	3.979793	0.282761	
0.045790	0.836937	0.003069	0.907324	0.907321	3.975908	0.282882	
0.047960	0.836874	0.003389	0.906754	0.906749	3.973530	0.282958	
0.052031	0.836787	0.003834	0.905965	0.905959	3.970559	0.283048	
0.057344	0.836737	0.004083	0.905538	0.905531	3.968661	0.283109	
0.061415	0.836735	0.004088	0.905543	0.905536	3.968997	0.283094	
0.063585	0.836717	0.004174	0.905401	0.905393	3.968120	0.283124	
0.067656	0.836617	0.004664	0.904570	0.904561	3.965033	0.283214	
0.072969	0.836384	0.005797	0.902652	0.902638	3.957496	0.283441	
0.077040	0.836179	0.006787	0.900991	0.900972	3.950951	0.283637	
0.079210	0.836102	0.007154	0.900384	0.900363	3.948457	0.283713	
0.083281	0.836029	0.007501	0.899818	0.899795	3.946354	0.283773	
0.088594	0.835984	0.007707	0.899503	0.899478	3.945223	0.283804	
0.092665	0.835883	0.008172	0.898767	0.898739	3.942153	0.283894	
0.094835	0.835759	0.008742	0.897858	0.897826	3.938520	0.284000	
0.098906	0.835439	0.010212	0.895530	0.895486	3.929522	0.284257	
0.104219	0.834992	0.012242	0.892339	0.892277	3.917273	0.284604	
0.108290	0.834772	0.013231	0.890811	0.890738	3.911372	0.284770	
0.110460	0.834727	0.013436	0.890500	0.890425	3.910245	0.284800	
0.114531	0.834653	0.013761	0.890019	0.889940	3.908513	0.284846	
0.119844	0.834398	0.014870	0.888375	0.888283	3.901950	0.285027	
0.123915	0.833933	0.016886	0.885383	0.885264	3.890665	0.285329	
0.126085	0.833606	0.018288	0.883318	0.883179	3.882782	0.285541	
0.130156	0.833040	0.020709	0.879777	0.879599	3.869253	0.285903	
0.135469	0.832537	0.022846	0.876688	0.876471	3.857739	0.286205	
0.139540	0.832401	0.023417	0.875886	0.875658	3.854431	0.286296	
0.141710	0.832325	0.023739	0.875435	0.875201	3.852703	0.286341	
0.145781	0.831952	0.025273	0.873310	0.873045	3.844817	0.286538	
0.151094	0.830998	0.029148	0.867991	0.867638	3.824823	0.287036	
0.155165	0.830002	0.033162	0.862537	0.862080	3.804566	0.287534	
0.157335	0.829546	0.034986	0.860087	0.859579	3.795368	0.287761	
0.161406	0.828980	0.037256	0.857046	0.856471	3.783856	0.288048	
0.166719	0.828580	0.038855	0.854941	0.854316	3.775888	0.288244	
0.170790	0.828203	0.040330	0.853047	0.852374	3.769137	0.288395	
0.172960	0.827764	0.042020	0.850888	0.850157	3.760847	0.288592	
0.177031	0.826546	0.046661	0.845044	0.844144	3.739279	0.289075	
0.182344	0.824673	0.053753	0.836220	0.835029	3.706747	0.289800	
0.186415	0.823548	0.057989	0.831024	0.829640	3.687297	0.290238	
0.188585	0.823225	0.059214	0.829527	0.828084	3.681838	0.290359	
0.192656	0.822784	0.060896	0.827481	0.825955	3.674048	0.290540	
0.197969	0.821863	0.064274	0.823520	0.821822	3.659456	0.290842	
0.202040	0.820310	0.069867	0.817081	0.815079	3.635824	0.291311	
0.204210	0.819175	0.073911	0.812491	0.810254	3.619168	0.291628	
0.208281	0.817104	0.081272	0.804225	0.801527	3.588749	0.292217	
0.213594	0.815089	0.088443	0.796267	0.793079	3.559049	0.292806	
0.217665	0.814412	0.090877	0.793585	0.790222	3.548848	0.293017	
0.219835	0.814110	0.091974	0.792375	0.788931	3.544386	0.293108	
0.223906	0.812923	0.096078	0.788046	0.784294	3.528575	0.293380	
0.229219	0.810014	0.105903	0.777968	0.773426	3.491630	0.293969	
0.233290	0.806934	0.116226	0.767602	0.762152	3.453253	0.294573	
0.235460	0.805494	0.121034	0.762851	0.756951	3.435636	0.294845	
0.239531	0.803636	0.127296	0.756671	0.750160	3.412200	0.295238	
0.244844	0.802280	0.131909	0.752154	0.745174	3.394889	0.295540	
0.248915	0.801169	0.135601	0.748658	0.741292	3.381734	0.295736	
0.251085	0.799946	0.139549	0.745024	0.737235	3.368257	0.295902	
0.255156	0.796621	0.150103	0.735573	0.726599	3.333210	0.296280	
0.260469	0.791579	0.166055	0.721638	0.710724	3.280803	0.296839	
0.264540	0.788598	0.175499	0.713558	0.701414	3.249507	0.297201	
0.266710	0.787753	0.178229	0.711210	0.698699	3.240353	0.297322	
0.270781	0.786579	0.182065	0.707912	0.694876	3.227414	0.297504	
0.276094	0.784218	0.189396	0.701984	0.687919	3.204538	0.297700	
0.280165	0.780368	0.201030	0.692972	0.677204	3.169928	0.297881	
0.282335	0.777639	0.209183	0.686835	0.669821	3.146459	0.297957	
0.286406	0.772818	0.223601	0.676187	0.656868	3.104681	0.298123	
0.291719	0.768360	0.237058	0.666427	0.644837	3.065332	0.298334	
0.295790	0.767001	0.241294	0.663321	0.640993	3.052437	0.298455	
0.297960	0.766316	0.243437	0.661757	0.639051	3.045705	0.298531	
0.302031	0.763568	0.251469	0.656361	0.632218	3.023896	0.298531	
0.307344	0.757117	0.269876	0.644621	0.617049	2.976789	0.298304	
0.311415	0.750703	0.288113	0.633459	0.602301	2.930527	0.298062	
0.313585	0.747907	0.296047	0.628745	0.595971	2.910706	0.297942	
0.317656	0.744528	0.305818	0.622918	0.588102	2.885443	0.297881	
0.322969	0.742212	0.312663	0.618828	0.582550	2.867030	0.297911	
0.327040	0.739895	0.319246	0.615140	0.577436	2.850847	0.297806	
0.329210	0.737273	0.326409	0.611365	0.572089	2.834761	0.297549	
0.333281	0.730665	0.344260	0.602369	0.559071	2.795776	0.296809	
0.338594	0.721482	0.369191	0.590353	0.541184	2.741538	0.295797	
0.342665	0.716780	0.382011	0.584396	0.532096	2.713557	0.295298	
0.344835	0.715633	0.385233	0.582859	0.529758	2.706040	0.295223	
0.348906	0.713867	0.390292	0.580444	0.526073	2.693849	0.295147	
0.354219	0.709412	0.402138	0.575427	0.518066	2.669922	0.294513	
0.358290	0.702108	0.421010	0.568080	0.505856	2.635087	0.293184	
0.360460	0.697365	0.433181	0.563599	0.498170	2.613340	0.292262	
0.364531	0.689825	0.452742	0.556587	0.485888	2.577851	0.290857	
0.369844	0.683843	0.468454	0.551099	0.476065	2.548395	0.289830	
0.373915	0.682341	0.472485	0.549645	0.473481	2.540319	0.289619	
0.376085	0.681167	0.475662	0.548533	0.471474	2.534021	0.289453	
0.380156	0.676254	0.488001	0.544801	0.464278	2.514302	0.288305	
0.385469	0.665393	0.514729	0.537493	0.449347	2.474976	0.285465	
0.389540	0.655790	0.538325	0.531584	0.436562	2.441508	0.282852	
0.391710	0.652378	0.546815	0.529526	0.431993	2.429256	0.281946	
0.395781	0.648824	0.555873	0.527268	0.427026	2.414825	0.281115	
0.401094	0.646200	0.562407	0.525681	0.423484	2.405120	0.280435	
0.405165	0.641878	0.572750	0.523534	0.418253	2.392130	0.279106	
0.407335	0.637669	0.582810	0.521596	0.413298	2.380380	0.277747	
0.411406	0.627817	0.605814	0.517613	0.402405	2.356086	0.274333	
0.416719	0.615632	0.634318	0.513165	0.389313	2.327405	0.269998	
0.420790	0.611055	0.645080	0.511579	0.384441	2.316376	0.268382	
0.422960	0.610600	0.646406	0.511267	0.383700	2.313590	0.268336	
0.427031	0.608392	0.651537	0.510494	0.381362	2.308338	0.267551	
0.432344	0.600697	0.668573	0.508554	0.374302	2.296785	0.264349	
0.436415	0.590126	0.692264	0.506165	0.364762	2.281025	0.259938	
0.438585	0.584463	0.704827	0.505055	0.359880	2.273822	0.257491	
0.442656	0.575790	0.723866	0.503544	0.352692	2.264361	0.253640	
0.447969	0.570044	0.736245	0.502635	0.348137	2.259282	0.251011	
0.452040	0.569709	0.737265	0.502423	0.347588	2.257090	0.250981	
0.454210	0.567924	0.741178	0.502134	0.346141	2.255274	0.250181	
0.458281	0.559385	0.758578	0.501316	0.340370	2.254047	0.245876	
0.463594	0.544517	0.789482	0.500104	0.330410	2.252563	0.238384	
0.467665	0.536033	0.807386	0.499505	0.324793	2.252148	0.234109	
0.469835	0.532345	0.814407	0.499365	0.322823	2.255112	0.232070	
0.473906	0.528453	0.821853	0.499187	0.320717	2.258250	0.229925	
0.479219	0.526375	0.825992	0.499030	0.319468	2.259000	0.228838	
0.483290	0.520910	0.836579	0.498833	0.316550	2.263913	0.225817	
0.485460	0.512816	0.851804	0.498719	0.312677	2.274389	0.221195	
0.489531	0.500198	0.875893	0.498560	0.306687	2.291902	0.214020	
0.494844	0.490224	0.894620	0.498451	0.302277	2.308662	0.208280	
0.498915	0.487677	0.898446	0.498412	0.301584	2.316456	0.206649	
0.501085	0.484645	0.903789	0.498374	0.300436	2.323099	0.204851	
0.505156	0.482069	0.908435	0.498334	0.299419	2.328859	0.203326	
0.510469	0.471966	0.925550	0.498222	0.296070	2.356261	0.197178	
0.514540	0.459123	0.947478	0.498060	0.291979	2.393894	0.189414	
0.516710	0.450847	0.961950	0.497943	0.289348	2.419519	0.184460	
0.520781	0.444978	0.971150	0.497738	0.287901	2.441648	0.180835	
0.526094	0.442316	0.974313	0.497570	0.287628	2.455469	0.179053	
0.530165	0.437955	0.980974	0.497380	0.286656	2.473532	0.176349	
0.532335	0.433994	0.987473	0.497232	0.285638	2.488849	0.173962	
0.536406	0.424924	1.000341	0.496617	0.284010	2.531628	0.168298	
0.541719	0.409178	1.023258	0.495371	0.281154	2.610204	0.158661	
0.545790	0.399878	1.036891	0.494521	0.279559	2.660283	0.153057	
0.547960	0.397669	1.039461	0.494212	0.279376	2.674305	0.151683	
0.552031	0.396533	1.039877	0.493961	0.279567	2.684674	0.150882	
0.557344	0.389722	1.048286	0.492997	0.278863	2.728022	0.146729	
0.561415	0.380189	1.059939	0.491435	0.277869	2.791250	0.141004	
0.563585	0.374053	1.067124	0.490296	0.277318	2.834593	0.137349	
0.567656	0.362575	1.079779	0.487846	0.276478	2.921489	0.130582	
0.572969	0.353669	1.089410	0.485821	0.275951	2.994477	0.125401	
0.577040	0.350530	1.092143	0.484979	0.275927	3.022191	0.123573	
0.579210	0.349580	1.092466	0.484628	0.276020	3.032422	0.122984	
0.583281	0.344075	1.097052	0.482973	0.275923	3.082817	0.119812	
0.588594	0.330721	1.107691	0.478445	0.275551	3.210723	0.112305	
0.592665	0.320006	1.115363	0.474414	0.275365	3.321961	0.106429	
0.594835	0.315349	1.117972	0.472453	0.275382	3.373521	0.103907	
0.598906	0.310203	1.120763	0.470270	0.275445	3.433848	0.101128	
0.604219	0.306516	1.122359	0.468638	0.275580	3.478941	0.099149	
0.608290	0.302186	1.123334	0.466363	0.275703	3.533012	0.096853	
0.610460	0.298385	1.124185	0.464310	0.275762	3.580664	0.094874	
0.614531	0.288129	1.125899	0.458454	0.275831	3.715168	0.089633	
0.619844	0.276529	1.126052	0.451282	0.275964	3.879702	0.083863	
0.623915	0.271097	1.125130	0.447682	0.276090	3.963045	0.081205	
0.626085	0.269653	1.124503	0.446645	0.276156	3.986704	0.080495	
0.630156	0.267649	1.124006	0.445332	0.276260	4.018592	0.079528	
0.635469	0.261124	1.120175	0.440123	0.276295	4.124374	0.076431	
0.639540	0.253293	1.114158	0.433431	0.276218	4.254634	0.072821	
0.641710	0.248443	1.109892	0.429161	0.276137	4.340209	0.070616	
0.645781	0.240999	1.101945	0.422269	0.275948	4.475589	0.067308	
0.651094	0.236377	1.096096	0.417853	0.275858	4.564329	0.065284	
0.655165	0.234497	1.093119	0.415917	0.275816	4.601382	0.064469	
0.657335	0.233303	1.091186	0.414653	0.275757	4.624914	0.063955	
0.661406	0.228596	1.082514	0.409303	0.275365	4.717955	0.061961	
0.666719	0.219590	1.062705	0.398307	0.274311	4.897377	0.058276	
0.670790	0.213203	1.046706	0.390194	0.273402	5.031984	0.055723	
0.672960	0.210711	1.039813	0.386903	0.272992	5.086195	0.054741	
0.677031	0.208601	1.033646	0.384081	0.272643	5.131180	0.053926	
0.682344	0.206566	1.026979	0.381143	0.272212	5.175883	0.053140	
0.686415	0.203475	1.015723	0.376317	0.271355	5.241191	0.051977	
0.688585	0.200872	1.005873	0.372201	0.270582	5.293439	0.051025	
0.692656	0.194901	0.980922	0.362291	0.268524	5.417854	0.048865	
0.697969	0.189048	0.953845	0.352213	0.266214	5.542572	0.046796	
0.702040	0.186725	0.942115	0.348037	0.265170	5.591012	0.045996	
0.704210	0.186250	0.939437	0.347094	0.264907	5.601716	0.045829	
0.708281	0.185286	0.933923	0.345161	0.264356	5.619008	0.045512	
0.713594	0.181439	0.910531	0.337136	0.261923	5.688008	0.044259	
0.717665	0.177149	0.882573	0.327941	0.258948	5.760634	0.042899	
0.719835	0.174714	0.865745	0.322603	0.257128	5.800027	0.042144	
0.723906	0.171381	0.841146	0.315014	0.254385	5.854942	0.041117	
0.729219	0.169607	0.827074	0.310743	0.252733	5.876218	0.040603	
0.733290	0.168855	0.820330	0.308662	0.251847	5.883684	0.040392	
0.735460	0.168239	0.814807	0.306973	0.251125	5.887820	0.040226	
0.739531	0.165727	0.792169	0.300231	0.248231	5.910328	0.039531	
0.744844	0.161310	0.749784	0.288071	0.242729	5.939268	0.038353	
0.748915	0.158426	0.720128	0.279868	0.238790	5.950396	0.037612	
0.751085	0.157411	0.709026	0.276827	0.237260	5.953405	0.037356	
0.755156	0.156640	0.699957	0.274300	0.235928	5.946633	0.037190	
0.760469	0.155705	0.688252	0.270987	0.234109	5.936803	0.036993	
0.764540	0.154173	0.669172	0.265737	0.231219	5.923842	0.036661	
0.766710	0.152910	0.653338	0.261490	0.228855	5.912376	0.036389	
0.770781	0.150142	0.617227	0.252001	0.223401	5.879869	0.035815	
0.776094	0.147556	0.581331	0.242776	0.217843	5.831594	0.035332	
0.780165	0.146556	0.566336	0.238899	0.215396	5.806004	0.035166	
0.782335	0.146338	0.562594	0.237871	0.214712	5.798447	0.035135	
0.786406	0.145813	0.553850	0.235512	0.213148	5.776337	0.035075	
0.791719	0.143987	0.524410	0.227933	0.208134	5.713929	0.034818	
0.795790	0.142035	0.492126	0.219845	0.202646	5.640989	0.034561	
0.797960	0.140948	0.473623	0.215289	0.199480	5.593103	0.034440	
0.802031	0.139446	0.446983	0.208756	0.194825	5.521688	0.034289	
0.807344	0.138545	0.429852	0.204475	0.191676	5.469405	0.034229	
0.811415	0.138100	0.420687	0.202102	0.189881	5.434343	0.034229	
0.813585	0.137773	0.414059	0.200417	0.188607	5.413263	0.034214	
0.817656	0.136632	0.391417	0.194831	0.184364	5.333193	0.034184	
0.822969	0.134704	0.352141	0.185339	0.176987	5.192712	0.034153	
0.827040	0.133419	0.324954	0.178862	0.171818	5.089681	0.034169	
0.829210	0.132936	0.314365	0.176328	0.169759	5.048565	0.034184	
0.833281	0.132471	0.303641	0.173701	0.167594	5.000335	0.034229	
0.838594	0.131952	0.291230	0.170615	0.165019	4.944156	0.034289	
0.842665	0.131290	0.275573	0.166798	0.161813	4.869529	0.034380	
0.844835	0.130781	0.263569	0.163925	0.159382	4.815313	0.034440	
0.848906	0.129680	0.237124	0.157644	0.153999	4.694269	0.034592	
0.854219	0.128586	0.210009	0.151239	0.148403	4.560791	0.034803	
0.858290	0.128107	0.197668	0.148296	0.145793	4.496384	0.034924	
0.860460	0.127977	0.194121	0.147421	0.145010	4.475922	0.034969	
0.864531	0.127742	0.187697	0.145836	0.143585	4.440774	0.035045	
0.869844	0.127114	0.170773	0.141747	0.139893	4.349501	0.035241	
0.873915	0.126456	0.152891	0.137471	0.135993	4.247547	0.035483	
0.876085	0.126083	0.142636	0.135031	0.133749	4.191114	0.035619	
0.880156	0.125536	0.127328	0.131380	0.130362	4.103795	0.035845	
0.885469	0.125186	0.117214	0.128943	0.128083	4.040957	0.036026	
0.889540	0.125045	0.112966	0.127889	0.127091	4.015416	0.036102	
0.891710	0.124964	0.110525	0.127283	0.126520	4.000441	0.036147	
0.895781	0.124682	0.102107	0.125221	0.124571	3.946918	0.036313	
0.901094	0.124164	0.086518	0.121408	0.120944	3.848373	0.036631	
0.905165	0.123796	0.075284	0.118663	0.118312	3.773873	0.036887	
0.907335	0.123651	0.070762	0.117551	0.117242	3.744039	0.036993	
0.911406	0.123511	0.066353	0.116458	0.116186	3.714858	0.037099	
0.916719	0.123418	0.063338	0.115697	0.115450	3.694598	0.037174	
0.920790	0.123311	0.059855	0.114812	0.114591	3.670728	0.037265	
0.922960	0.123217	0.056821	0.114045	0.113846	3.647839	0.037356	
0.927031	0.122984	0.049219	0.112116	0.111967	3.594310	0.037567	
0.932344	0.122722	0.040538	0.109904	0.109803	3.531791	0.037824	
0.936415	0.122602	0.036522	0.108873	0.108792	3.503061	0.037945	
0.938585	0.122575	0.035583	0.108628	0.108551	3.496072	0.037975	
0.942656	0.122554	0.034873	0.108441	0.108366	3.489481	0.038005	
0.947969	0.122481	0.032372	0.107777	0.107713	3.471899	0.038081	
0.952040	0.122379	0.028811	0.106829	0.106778	3.444767	0.038202	
0.954210	0.122309	0.026389	0.106183	0.106140	3.425007	0.038292	
0.958281	0.122190	0.022193	0.105054	0.105024	3.392219	0.038443	
0.963594	0.122107	0.019281	0.104260	0.104237	3.369543	0.038549	
0.967665	0.122086	0.018583	0.104059	0.104038	3.363259	0.038579	
0.969835	0.122083	0.018511	0.104032	0.104011	3.363103	0.038579	
0.973906	0.122063	0.017834	0.103831	0.103811	3.356843	0.038609	
0.979219	0.121992	0.015346	0.103112	0.103098	3.335149	0.038715	
0.983290	0.121925	0.012946	0.102415	0.102405	3.313812	0.038821	
0.985460	0.121891	0.011760	0.102065	0.102057	3.304471	0.038866	
0.989531	0.121851	0.010405	0.101647	0.101640	3.292313	0.038927	
0.994844	0.121833	0.010006	0.101482	0.101476	3.286386	0.038957	
0.998915	0.121826	0.009985	0.101430	0.101424	3.286005	0.038957	
