TITLE = "DG1DBEX32-P3RK4w1000iv80"
VARIABLES = "x" "Density" "Velocity in x" "Energy" "Pressure" "Temperature" "Fugacity"
ZONE T = "Final Time 0.10"
I = 128, J = 1, K = 1, F = POINT

0.002170	1.266289	0.000000	1.120871	1.120871	3.992274	0.283335	
0.010313	1.266289	-0.000000	1.120871	1.120871	3.992274	0.283335	
0.020937	1.266289	-0.000000	1.120871	1.120871	3.992274	0.283335	
0.029080	1.266289	0.000000	1.120871	1.120871	3.992274	0.283335	
0.033420	1.266289	0.000000	1.120871	1.120871	3.992274	0.283335	
0.041563	1.266289	-0.000000	1.120871	1.120871	3.992274	0.283335	
0.052187	1.266289	-0.000000	1.120871	1.120871	3.992274	0.283335	
0.060330	1.266289	0.000000	1.120870	1.120870	3.992273	0.283335	
0.064670	1.266289	0.000000	1.120871	1.120871	3.992274	0.283335	
0.072813	1.266289	-0.000000	1.120871	1.120871	3.992275	0.283335	
0.083437	1.266289	0.000000	1.120870	1.120870	3.992273	0.283335	
0.091580	1.266289	0.000001	1.120870	1.120870	3.992272	0.283335	
0.095920	1.266289	-0.000000	1.120871	1.120871	3.992275	0.283335	
0.104063	1.266289	-0.000001	1.120871	1.120871	3.992276	0.283335	
0.114687	1.266288	0.000001	1.120869	1.120869	3.992270	0.283335	
0.122830	1.266288	0.000001	1.120869	1.120869	3.992269	0.283335	
0.127170	1.266291	-0.000003	1.120875	1.120875	3.992284	0.283335	
0.135313	1.266290	-0.000002	1.120873	1.120873	3.992280	0.283335	
0.145937	1.266286	0.000005	1.120863	1.120863	3.992255	0.283335	
0.154080	1.266288	0.000001	1.120870	1.120870	3.992268	0.283335	
0.158420	1.266295	-0.000010	1.120885	1.120885	3.992310	0.283335	
0.166563	1.266292	-0.000004	1.120875	1.120875	3.992289	0.283335	
0.177187	1.266276	0.000024	1.120837	1.120837	3.992192	0.283335	
0.185330	1.266274	0.000025	1.120835	1.120835	3.992181	0.283335	
0.189670	1.266275	0.000025	1.120834	1.120834	3.992186	0.283335	
0.197813	1.266306	-0.000030	1.120914	1.120914	3.992380	0.283335	
0.208437	1.266270	0.000041	1.120800	1.120800	3.992152	0.283335	
0.216580	1.266004	0.000549	1.120008	1.120007	3.989938	0.283350	
0.220920	1.265658	0.001230	1.118971	1.118970	3.987752	0.283350	
0.229063	1.264345	0.003815	1.114894	1.114885	3.977323	0.283411	
0.239687	1.260405	0.011388	1.103342	1.103260	3.948290	0.283532	
0.247830	1.254955	0.021795	1.087983	1.087685	3.909974	0.283653	
0.252170	1.251020	0.029189	1.077306	1.076773	3.882857	0.283728	
0.260313	1.241707	0.046549	1.053032	1.051687	3.821118	0.283849	
0.270937	1.226128	0.075331	1.014787	1.011308	3.721298	0.283985	
0.279080	1.211917	0.101340	0.982186	0.975963	3.633566	0.284045	
0.283420	1.203748	0.116321	0.964177	0.956033	3.583293	0.284091	
0.291563	1.187211	0.146449	0.929693	0.916962	3.485043	0.284106	
0.302187	1.164043	0.188620	0.884730	0.864023	3.348990	0.284151	
0.310330	1.145476	0.222349	0.851608	0.823292	3.243002	0.284151	
0.314670	1.135359	0.240764	0.834520	0.801613	3.185972	0.284151	
0.322813	1.115943	0.275978	0.803762	0.761265	3.077937	0.284151	
0.333437	1.089952	0.323055	0.766350	0.709474	2.937025	0.284121	
0.341580	1.069653	0.359819	0.739971	0.670728	2.829414	0.284091	
0.345920	1.058717	0.379628	0.726771	0.650482	2.772230	0.284075	
0.354063	1.038001	0.417118	0.703587	0.613287	2.665887	0.284030	
0.364687	1.010658	0.466556	0.676460	0.566463	2.528657	0.283970	
0.372830	0.989519	0.504746	0.658017	0.531969	2.425296	0.283909	
0.377170	0.978204	0.525184	0.649007	0.514104	2.371115	0.283864	
0.385313	0.956915	0.563627	0.633603	0.481609	2.270567	0.283788	
0.395937	0.929131	0.613784	0.616344	0.441328	2.142663	0.283683	
0.404080	0.907945	0.652006	0.605192	0.412203	2.048005	0.283577	
0.408420	0.896767	0.672183	0.599971	0.397378	1.998703	0.283532	
0.416563	0.876102	0.709453	0.591453	0.370971	1.909720	0.283411	
0.427187	0.850342	0.755822	0.582749	0.339862	1.802488	0.283199	
0.435330	0.832252	0.788240	0.577792	0.319244	1.729661	0.283003	
0.439670	0.823472	0.803841	0.575733	0.309686	1.695661	0.282852	
0.447813	0.809729	0.828290	0.572923	0.295160	1.643329	0.282595	
0.458437	0.797553	0.849314	0.570901	0.283250	1.600798	0.282142	
0.466580	0.793160	0.856582	0.570305	0.279322	1.587097	0.281870	
0.470920	0.792027	0.858317	0.570168	0.278422	1.584292	0.281749	
0.479063	0.790764	0.859964	0.570027	0.277627	1.582041	0.281553	
0.489687	0.790200	0.860215	0.569941	0.277578	1.582805	0.281342	
0.497830	0.789765	0.860230	0.569860	0.277649	1.583866	0.281145	
0.502170	0.789637	0.860037	0.569836	0.277803	1.584869	0.281039	
0.510313	0.789376	0.859955	0.569790	0.277909	1.585985	0.280888	
0.520937	0.788504	0.860096	0.569635	0.277981	1.587679	0.280526	
0.529080	0.787554	0.859717	0.569356	0.278310	1.591236	0.280012	
0.533420	0.786958	0.859514	0.569199	0.278511	1.593183	0.279710	
0.541563	0.784387	0.859824	0.568226	0.278278	1.596303	0.278774	
0.552187	0.782400	0.860550	0.568034	0.278332	1.600053	0.277958	
0.560330	0.764873	0.863053	0.563395	0.278533	1.632051	0.270874	
0.564670	0.744369	0.866090	0.557585	0.278405	1.669367	0.262672	
0.572813	0.663377	0.876434	0.532959	0.278177	1.842111	0.229699	
0.583437	0.504553	0.894646	0.480151	0.278231	2.351130	0.163736	
0.591580	0.385091	0.908362	0.437350	0.278477	3.021216	0.114722	
0.595920	0.335066	0.909771	0.417692	0.279028	3.451165	0.094859	
0.604063	0.267045	0.909457	0.389490	0.279052	4.286742	0.069181	
0.614687	0.216803	0.898110	0.366490	0.279053	5.246415	0.051448	
0.622830	0.196989	0.886437	0.356343	0.278949	5.756036	0.044848	
0.627170	0.190174	0.881193	0.352784	0.278949	5.957514	0.042627	
0.635313	0.182586	0.871651	0.348559	0.279196	6.207935	0.040165	
0.645937	0.177965	0.864266	0.345861	0.279395	6.366340	0.038700	
0.654080	0.176622	0.861529	0.344982	0.279435	6.413950	0.038277	
0.658420	0.176170	0.861169	0.344574	0.279249	6.428036	0.038141	
0.666563	0.175764	0.862129	0.344250	0.278930	6.435049	0.038035	
0.677187	0.175672	0.863108	0.344178	0.278744	6.433540	0.038020	
0.685330	0.175763	0.862078	0.344411	0.279099	6.440195	0.038020	
0.689670	0.175822	0.861425	0.344492	0.279258	6.439277	0.038035	
0.697813	0.175875	0.860495	0.344737	0.279624	6.448422	0.038020	
0.708437	0.175837	0.860953	0.344827	0.279658	6.450886	0.038005	
0.716580	0.175775	0.863001	0.344652	0.279196	6.441086	0.038020	
0.720920	0.175774	0.863885	0.344615	0.279025	6.435816	0.038035	
0.729063	0.175817	0.863956	0.344805	0.279188	6.438961	0.038035	
0.739687	0.175880	0.863015	0.345162	0.279664	6.448836	0.038020	
0.747830	0.175909	0.862856	0.345297	0.279813	6.450969	0.038020	
0.752170	0.175980	0.862334	0.345422	0.279991	6.450895	0.038035	
0.760313	0.176074	0.862246	0.345598	0.280145	6.452508	0.038050	
0.770937	0.175937	0.865483	0.345531	0.279638	6.447741	0.038035	
0.779080	0.175857	0.869428	0.345452	0.278986	6.431387	0.038066	
0.783420	0.176261	0.867616	0.346691	0.280350	6.450441	0.038096	
0.791563	0.175993	0.862361	0.345678	0.280238	6.457075	0.038020	
0.802187	0.175900	0.864905	0.345297	0.279505	6.444984	0.038035	
0.810330	0.175987	0.855189	0.344227	0.279873	6.451389	0.038035	
0.814670	0.176037	0.850760	0.343715	0.280008	6.449782	0.038050	
0.822813	0.168097	0.771886	0.309620	0.259543	6.257936	0.036918	
0.833437	0.143837	0.325943	0.174231	0.166591	4.695697	0.036480	
0.841580	0.125969	-0.072299	0.089880	0.089551	2.885172	0.040633	
0.845920	0.124685	-0.064001	0.091875	0.091620	2.981998	0.039591	
0.854063	0.130820	0.036647	0.107120	0.107032	3.319040	0.039380	
0.864687	0.128261	-0.003975	0.101109	0.101108	3.198043	0.039334	
0.872830	0.127742	-0.017603	0.098802	0.098782	3.137421	0.039546	
0.877170	0.129305	0.009728	0.102570	0.102564	3.219708	0.039516	
0.885313	0.128721	0.002066	0.101886	0.101886	3.210852	0.039395	
0.895937	0.128533	-0.002112	0.101104	0.101103	3.191426	0.039455	
0.904080	0.128728	0.000883	0.101532	0.101532	3.201123	0.039455	
0.908420	0.128689	0.001049	0.101645	0.101645	3.204215	0.039425	
0.916563	0.128615	-0.000508	0.101377	0.101377	3.197993	0.039440	
0.927187	0.128657	0.000164	0.101466	0.101466	3.200117	0.039440	
0.935330	0.128655	0.000161	0.101471	0.101471	3.199972	0.039440	
0.939670	0.128632	-0.000243	0.101414	0.101414	3.198830	0.039440	
0.947813	0.128648	0.000029	0.101449	0.101449	3.199672	0.039440	
0.958437	0.128647	0.000012	0.101448	0.101448	3.199592	0.039440	
0.966580	0.128644	-0.000041	0.101441	0.101441	3.199439	0.039440	
0.970920	0.128647	0.000011	0.101447	0.101447	3.199612	0.039440	
0.979063	0.128647	0.000008	0.101447	0.101447	3.199585	0.039440	
0.989687	0.128646	-0.000005	0.101445	0.101445	3.199550	0.039440	
0.997830	0.128647	0.000002	0.101446	0.101446	3.199575	0.039440	
