TITLE = "DG1DMBX16-P5RK5w100iv80"
VARIABLES = "x" "Density" "Velocity in x" "Energy" "Pressure" "Temperature" "Fugacity"
ZONE T = "Final Time 0.10"
I = 96, J = 1, K = 1, F = POINT

0.002110	1.000000	0.000000	1.000000	1.000000	4.000000	0.282095	
0.010587	1.000000	0.000000	1.000000	1.000000	4.000000	0.282095	
0.023793	1.000000	0.000000	1.000000	1.000000	3.999999	0.282095	
0.038707	1.000000	0.000000	1.000000	1.000000	3.999999	0.282095	
0.051913	1.000000	0.000000	0.999999	0.999999	3.999997	0.282095	
0.060390	1.000000	0.000000	0.999999	0.999999	3.999996	0.282095	
0.064610	1.000000	0.000001	0.999999	0.999999	3.999995	0.282095	
0.073087	1.000000	0.000001	0.999998	0.999998	3.999993	0.282095	
0.086293	1.000000	0.000002	0.999996	0.999996	3.999986	0.282095	
0.101207	0.999999	0.000004	0.999992	0.999992	3.999971	0.282096	
0.114413	0.999998	0.000007	0.999984	0.999984	3.999944	0.282096	
0.122890	0.999997	0.000012	0.999976	0.999976	3.999915	0.282097	
0.127110	0.999996	0.000015	0.999970	0.999970	3.999894	0.282098	
0.135587	0.999994	0.000023	0.999954	0.999954	3.999837	0.282099	
0.148793	0.999988	0.000047	0.999908	0.999908	3.999679	0.282103	
0.163707	0.999973	0.000106	0.999799	0.999799	3.999304	0.282112	
0.176913	0.999942	0.000219	0.999594	0.999594	3.998608	0.282128	
0.185390	0.999906	0.000349	0.999363	0.999363	3.997827	0.282145	
0.189610	0.999880	0.000440	0.999203	0.999203	3.997290	0.282157	
0.198087	0.999806	0.000702	0.998751	0.998751	3.995778	0.282189	
0.211293	0.999591	0.001436	0.997513	0.997512	3.991678	0.282273	
0.226207	0.999075	0.003148	0.994719	0.994714	3.982542	0.282451	
0.239413	0.998153	0.006101	0.990072	0.990053	3.967542	0.282723	
0.247890	0.997183	0.009131	0.985445	0.985404	3.952750	0.282976	
0.252110	0.996549	0.011080	0.982524	0.982463	3.943460	0.283129	
0.260587	0.994892	0.016086	0.975184	0.975055	3.920243	0.283495	
0.273793	0.991007	0.027498	0.959108	0.958733	3.869732	0.284225	
0.288707	0.984103	0.047064	0.933123	0.932033	3.788357	0.285259	
0.301913	0.975216	0.071414	0.902917	0.900430	3.693252	0.286300	
0.310390	0.967964	0.090807	0.880266	0.876275	3.621105	0.286988	
0.314610	0.963878	0.101586	0.868161	0.863187	3.582144	0.287326	
0.323087	0.954702	0.125474	0.842466	0.834950	3.498266	0.287983	
0.336293	0.937831	0.168485	0.799808	0.786496	3.354535	0.288891	
0.351207	0.915136	0.224951	0.750097	0.726943	3.177419	0.289650	
0.364413	0.892079	0.281100	0.706991	0.671746	3.012046	0.290000	
0.372890	0.875972	0.319742	0.680659	0.635881	2.903663	0.290029	
0.377110	0.867607	0.339638	0.668097	0.618056	2.849473	0.289979	
0.385587	0.850201	0.380716	0.644179	0.582563	2.740826	0.289738	
0.398793	0.821717	0.447020	0.610960	0.528859	2.574409	0.288941	
0.413707	0.788190	0.523633	0.580105	0.472047	2.395601	0.287309	
0.426913	0.758056	0.591024	0.558956	0.426558	2.250801	0.285074	
0.435390	0.738845	0.633047	0.548355	0.400309	2.167213	0.283157	
0.439610	0.729412	0.653363	0.543895	0.388208	2.128882	0.282048	
0.448087	0.710798	0.692598	0.536458	0.365976	2.059521	0.279440	
0.461293	0.683029	0.748388	0.528420	0.337143	1.974399	0.274250	
0.476207	0.653313	0.802249	0.523285	0.313048	1.916680	0.266239	
0.489413	0.627286	0.842207	0.520871	0.298400	1.902802	0.256563	
0.497890	0.609582	0.865096	0.519766	0.291663	1.913856	0.248601	
0.502110	0.600204	0.875954	0.519222	0.288955	1.925711	0.244022	
0.510587	0.579495	0.897392	0.517891	0.284553	1.964146	0.233286	
0.523793	0.540962	0.931033	0.514413	0.279954	2.070044	0.212130	
0.538707	0.486246	0.970939	0.506495	0.277297	2.281127	0.181638	
0.551913	0.429756	1.006056	0.494303	0.276815	2.576484	0.151054	
0.560390	0.391885	1.026249	0.483635	0.277271	2.830127	0.131426	
0.564610	0.373274	1.034887	0.477568	0.277681	2.975630	0.122085	
0.573087	0.337377	1.048416	0.464165	0.278747	3.304868	0.104704	
0.586293	0.288205	1.056015	0.441335	0.280636	3.894948	0.082390	
0.601207	0.245255	1.042743	0.415515	0.282181	4.602252	0.064500	
0.614413	0.218173	1.014586	0.394681	0.282389	5.177343	0.054097	
0.622890	0.205338	0.991513	0.382770	0.281836	5.490193	0.049442	
0.627110	0.200043	0.979188	0.377273	0.281371	5.626216	0.047582	
0.635587	0.191245	0.953733	0.367055	0.280076	5.857957	0.044580	
0.648793	0.181309	0.914003	0.352919	0.277186	6.115211	0.041366	
0.663707	0.173709	0.869895	0.338396	0.272672	6.278826	0.039112	
0.676913	0.168737	0.829457	0.325366	0.267321	6.336990	0.037817	
0.685390	0.165935	0.800900	0.316162	0.262943	6.338459	0.037185	
0.689610	0.164579	0.785463	0.311183	0.260414	6.329240	0.036908	
0.698087	0.161789	0.750449	0.299920	0.254362	6.288725	0.036399	
0.711293	0.157038	0.682059	0.278286	0.241758	6.157937	0.035704	
0.726207	0.150439	0.572770	0.245169	0.220492	5.862605	0.035054	
0.739413	0.143385	0.439514	0.207410	0.193561	5.399747	0.034813	
0.747890	0.138613	0.339730	0.180969	0.172970	4.991453	0.035004	
0.752110	0.136340	0.289333	0.168189	0.162482	4.766995	0.035231	
0.760587	0.132355	0.195725	0.145310	0.142775	4.314923	0.035948	
0.773793	0.128380	0.094673	0.121676	0.121101	3.773221	0.037288	
0.788707	0.126356	0.039683	0.109177	0.109078	3.453047	0.038363	
0.801913	0.125637	0.019247	0.104530	0.104507	3.327247	0.038860	
0.810390	0.125382	0.011821	0.102836	0.102827	3.280450	0.039057	
0.814610	0.125310	0.009647	0.102324	0.102318	3.266080	0.039120	
0.823087	0.125199	0.006298	0.101539	0.101537	3.244012	0.039218	
0.836293	0.125100	0.003268	0.100821	0.100820	3.223672	0.039310	
0.851207	0.125048	0.001609	0.100416	0.100416	3.212088	0.039365	
0.864413	0.125025	0.000872	0.100232	0.100232	3.206785	0.039390	
0.872890	0.125017	0.000591	0.100161	0.100161	3.204711	0.039400	
0.877110	0.125014	0.000491	0.100134	0.100134	3.203938	0.039404	
0.885587	0.125009	0.000336	0.100094	0.100094	3.202759	0.039410	
0.898793	0.125005	0.000187	0.100054	0.100054	3.201589	0.039416	
0.913707	0.125003	0.000097	0.100029	0.100029	3.200860	0.039419	
0.926913	0.125001	0.000055	0.100017	0.100017	3.200501	0.039421	
0.935390	0.125001	0.000038	0.100012	0.100012	3.200354	0.039422	
0.939610	0.125001	0.000032	0.100010	0.100010	3.200298	0.039422	
0.948087	0.125001	0.000022	0.100007	0.100007	3.200211	0.039423	
0.961293	0.125000	0.000012	0.100004	0.100004	3.200123	0.039423	
0.976207	0.125000	0.000007	0.100002	0.100002	3.200067	0.039424	
0.989413	0.125000	0.000004	0.100001	0.100001	3.200039	0.039424	
0.997890	0.125000	0.000003	0.100001	0.100001	3.200027	0.039424	
