TITLE = "DG1DMBX32-P5RK5w10iv80"
VARIABLES = "x" "Density" "Velocity in x" "Energy" "Pressure" "Temperature" "Fugacity"
ZONE T = "Final Time 0.10"
I = 192, J = 1, K = 1, F = POINT

0.001055	0.999999	0.000004	0.999986	0.999986	3.999946	0.282097	
0.005294	1.000000	0.000000	0.999995	0.999995	3.999981	0.282096	
0.011897	0.999999	0.000009	0.999972	0.999972	3.999894	0.282098	
0.019353	0.999997	0.000016	0.999951	0.999951	3.999814	0.282101	
0.025956	1.000000	0.000005	0.999978	0.999978	3.999912	0.282098	
0.030195	0.999999	0.000009	0.999966	0.999966	3.999868	0.282099	
0.032305	0.999997	0.000019	0.999940	0.999940	3.999771	0.282102	
0.036544	0.999994	0.000035	0.999900	0.999900	3.999624	0.282106	
0.043147	0.999996	0.000027	0.999914	0.999914	3.999671	0.282105	
0.050603	0.999996	0.000027	0.999910	0.999910	3.999655	0.282106	
0.057206	0.999987	0.000073	0.999797	0.999797	3.999239	0.282118	
0.061445	0.999986	0.000078	0.999776	0.999776	3.999161	0.282120	
0.063555	0.999990	0.000063	0.999806	0.999806	3.999267	0.282118	
0.067794	0.999993	0.000052	0.999827	0.999827	3.999338	0.282116	
0.074397	0.999981	0.000109	0.999691	0.999691	3.998841	0.282130	
0.081853	0.999970	0.000162	0.999551	0.999551	3.998322	0.282146	
0.088456	0.999980	0.000131	0.999597	0.999597	3.998469	0.282143	
0.092695	0.999970	0.000178	0.999487	0.999487	3.998071	0.282154	
0.094805	0.999956	0.000239	0.999353	0.999353	3.997589	0.282167	
0.099044	0.999939	0.000317	0.999165	0.999165	3.996905	0.282187	
0.105647	0.999944	0.000315	0.999126	0.999126	3.996727	0.282194	
0.113103	0.999928	0.000397	0.998920	0.998920	3.995970	0.282217	
0.119706	0.999870	0.000649	0.998363	0.998363	3.993971	0.282271	
0.123945	0.999868	0.000681	0.998243	0.998243	3.993499	0.282287	
0.126055	0.999881	0.000643	0.998287	0.998287	3.993622	0.282286	
0.130294	0.999869	0.000706	0.998127	0.998126	3.993028	0.282304	
0.136897	0.999782	0.001070	0.997358	0.997357	3.990299	0.282376	
0.144353	0.999724	0.001358	0.996661	0.996660	3.987744	0.282450	
0.150956	0.999715	0.001453	0.996351	0.996350	3.986538	0.282490	
0.155195	0.999609	0.001867	0.995532	0.995530	3.983678	0.282562	
0.157305	0.999535	0.002153	0.994971	0.994969	3.981727	0.282610	
0.161544	0.999468	0.002465	0.994260	0.994257	3.979146	0.282683	
0.168147	0.999432	0.002714	0.993576	0.993572	3.976547	0.282765	
0.175603	0.999212	0.003583	0.991843	0.991837	3.970475	0.282919	
0.182206	0.998924	0.004725	0.989584	0.989573	3.962558	0.283119	
0.186445	0.998905	0.004940	0.988935	0.988923	3.960028	0.283204	
0.188555	0.998891	0.005057	0.988613	0.988600	3.958793	0.283245	
0.192794	0.998657	0.005917	0.987020	0.987003	3.953321	0.283374	
0.199397	0.998166	0.007724	0.983686	0.983656	3.941853	0.283647	
0.206853	0.997841	0.009154	0.980715	0.980673	3.931180	0.283939	
0.213456	0.997423	0.010756	0.977696	0.977638	3.920656	0.284201	
0.217695	0.996771	0.012938	0.974048	0.973965	3.908481	0.284457	
0.219805	0.996497	0.013908	0.972346	0.972249	3.902668	0.284590	
0.224044	0.996237	0.015080	0.969957	0.969844	3.894027	0.284832	
0.230647	0.995646	0.017347	0.965787	0.965638	3.879442	0.285197	
0.238103	0.994219	0.022031	0.958204	0.957962	3.854129	0.285722	
0.244706	0.993107	0.026005	0.951419	0.951083	3.830738	0.286273	
0.248945	0.992731	0.027634	0.948328	0.947949	3.819560	0.286583	
0.251055	0.992265	0.029135	0.945987	0.945566	3.811747	0.286742	
0.255294	0.990836	0.033428	0.939690	0.939137	3.791290	0.287100	
0.261897	0.988922	0.039626	0.930153	0.929376	3.759151	0.287768	
0.269353	0.987237	0.045464	0.920852	0.919832	3.726893	0.288518	
0.275956	0.984431	0.053648	0.909559	0.908143	3.690020	0.289132	
0.280195	0.982133	0.060310	0.900548	0.898762	3.660450	0.289620	
0.282305	0.981493	0.062523	0.897194	0.895276	3.648626	0.289900	
0.286544	0.980342	0.066570	0.891046	0.888874	3.626793	0.290430	
0.293147	0.976848	0.076445	0.878308	0.875454	3.584811	0.291084	
0.300603	0.971673	0.090723	0.860734	0.856735	3.526846	0.291912	
0.307206	0.968530	0.100479	0.847933	0.843044	3.481746	0.292846	
0.311445	0.965846	0.107817	0.839328	0.833714	3.452783	0.293257	
0.313555	0.963503	0.113548	0.833288	0.827077	3.433623	0.293361	
0.317794	0.959130	0.124702	0.821298	0.813841	3.394079	0.293725	
0.324397	0.954345	0.138261	0.805875	0.796753	3.339476	0.294640	
0.331853	0.947932	0.154915	0.788650	0.777275	3.279879	0.295307	
0.338456	0.938786	0.176624	0.768798	0.754155	3.213318	0.295471	
0.342695	0.934645	0.187728	0.757911	0.741441	3.173147	0.296024	
0.344805	0.933481	0.191447	0.753906	0.736799	3.157210	0.296400	
0.349044	0.928888	0.202650	0.744060	0.724987	3.121957	0.296603	
0.355647	0.918017	0.227089	0.724977	0.701306	3.055742	0.296290	
0.363103	0.907555	0.252308	0.705130	0.676243	2.980505	0.296588	
0.369706	0.900041	0.270614	0.691295	0.658339	2.925817	0.296868	
0.373945	0.890326	0.290632	0.679156	0.641555	2.882337	0.295871	
0.376055	0.885062	0.301554	0.672690	0.632448	2.858323	0.295354	
0.380294	0.878517	0.317170	0.662488	0.618300	2.815201	0.295407	
0.386897	0.869655	0.338038	0.649544	0.599857	2.759056	0.295387	
0.394353	0.852571	0.372589	0.632777	0.573599	2.691152	0.293215	
0.400956	0.837245	0.404976	0.617775	0.549118	2.623453	0.291636	
0.405195	0.833239	0.415323	0.612197	0.540333	2.593894	0.291889	
0.407305	0.829640	0.423053	0.608986	0.534744	2.578198	0.291512	
0.411544	0.816581	0.447311	0.600855	0.519161	2.543095	0.288897	
0.418147	0.797889	0.484040	0.588842	0.495372	2.483411	0.285656	
0.425603	0.785393	0.511172	0.579767	0.477157	2.430158	0.284246	
0.432206	0.766510	0.545413	0.572106	0.458098	2.390564	0.279700	
0.436445	0.748918	0.577633	0.565831	0.440890	2.354808	0.275348	
0.438555	0.745335	0.585531	0.563914	0.436146	2.340671	0.274857	
0.442794	0.740095	0.597333	0.561028	0.428992	2.318581	0.274221	
0.449397	0.722286	0.628906	0.556565	0.413725	2.291196	0.269218	
0.456853	0.693960	0.678945	0.551161	0.391215	2.254971	0.260729	
0.463456	0.682352	0.701388	0.548575	0.380735	2.231899	0.257689	
0.467695	0.675282	0.714111	0.547674	0.375493	2.224213	0.255459	
0.469805	0.662899	0.733699	0.546825	0.368402	2.222973	0.250845	
0.474044	0.642092	0.768056	0.545486	0.356098	2.218359	0.243224	
0.480647	0.628498	0.792883	0.544328	0.346771	2.206981	0.238688	
0.488103	0.610682	0.820591	0.543899	0.338292	2.215830	0.231458	
0.494706	0.576617	0.875253	0.543494	0.322630	2.238085	0.217458	
0.498945	0.569651	0.885695	0.543404	0.319971	2.246789	0.214414	
0.501055	0.566901	0.889710	0.543374	0.318999	2.250828	0.213187	
0.505294	0.559881	0.900025	0.543285	0.316521	2.261344	0.210057	
0.511897	0.525420	0.950314	0.542872	0.305620	2.326674	0.194341	
0.519353	0.506640	0.977674	0.542429	0.300294	2.370869	0.185640	
0.525956	0.492031	0.993867	0.541244	0.298237	2.424534	0.178280	
0.530195	0.470397	1.023500	0.539877	0.293494	2.495710	0.167994	
0.532305	0.457548	1.042285	0.539012	0.290481	2.539458	0.161991	
0.536544	0.449477	1.051022	0.538066	0.289809	2.579077	0.157907	
0.543147	0.436230	1.062759	0.535400	0.289049	2.650426	0.151176	
0.550603	0.405916	1.096425	0.529869	0.285883	2.817166	0.136444	
0.557206	0.386270	1.116818	0.525286	0.284392	2.945009	0.126991	
0.561445	0.379865	1.118222	0.522316	0.284820	2.999169	0.123753	
0.563555	0.375717	1.119154	0.520361	0.285067	3.034909	0.121678	
0.567794	0.357016	1.134528	0.514026	0.284258	3.184824	0.112868	
0.574397	0.336524	1.150396	0.506307	0.283627	3.371251	0.103406	
0.581853	0.322406	1.149431	0.497269	0.284289	3.527088	0.096855	
0.588456	0.302543	1.152830	0.485435	0.284392	3.760015	0.088027	
0.592695	0.288888	1.156553	0.477518	0.284307	3.936564	0.082148	
0.594805	0.285031	1.154460	0.474441	0.284500	3.992541	0.080481	
0.599044	0.280565	1.147150	0.469184	0.284579	4.057234	0.078586	
0.605647	0.264770	1.134775	0.454908	0.284433	4.297059	0.072062	
0.613103	0.247532	1.120208	0.439299	0.283989	4.589131	0.065192	
0.619706	0.238776	1.100499	0.427663	0.283072	4.742060	0.061863	
0.623945	0.232407	1.083182	0.418453	0.282113	4.855497	0.059506	
0.626055	0.227275	1.073701	0.412534	0.281529	4.954859	0.057605	
0.630294	0.217918	1.054608	0.401598	0.280414	5.147155	0.054192	
0.636897	0.211044	1.027899	0.389790	0.278298	5.274680	0.051844	
0.644353	0.201447	0.985948	0.372506	0.274594	5.452427	0.048673	
0.650956	0.191475	0.942981	0.355899	0.270768	5.656472	0.045422	
0.655195	0.187480	0.919918	0.347683	0.268356	5.725531	0.044205	
0.657305	0.186602	0.910569	0.344483	0.267124	5.726071	0.043996	
0.661544	0.183032	0.883327	0.335224	0.263817	5.765478	0.043007	
0.668147	0.174817	0.829234	0.317941	0.257836	5.899557	0.040607	
0.675603	0.169378	0.781906	0.303435	0.251658	5.943111	0.039199	
0.682206	0.165352	0.737692	0.290190	0.245199	5.931576	0.038304	
0.686445	0.161430	0.699338	0.279480	0.240005	5.946992	0.037347	
0.688555	0.159305	0.678909	0.274040	0.237326	5.959027	0.036819	
0.692794	0.157006	0.651439	0.266495	0.233181	5.940665	0.036343	
0.699397	0.154341	0.610969	0.255000	0.226194	5.862180	0.035965	
0.706853	0.149583	0.546957	0.238439	0.216064	5.777772	0.035110	
0.713456	0.146334	0.498420	0.226116	0.207940	5.683971	0.034629	
0.717695	0.145269	0.476310	0.219980	0.203502	5.603449	0.034623	
0.719805	0.144655	0.463791	0.216566	0.201008	5.558299	0.034617	
0.724044	0.142392	0.426077	0.207335	0.194410	5.461272	0.034377	
0.730647	0.139573	0.376364	0.195383	0.185497	5.316159	0.034153	
0.738103	0.137776	0.336168	0.184925	0.177140	5.142828	0.034277	
0.744706	0.135717	0.292099	0.174126	0.168336	4.961378	0.034376	
0.748945	0.134183	0.260823	0.166945	0.162380	4.840580	0.034409	
0.751055	0.133660	0.249089	0.164144	0.159997	4.788196	0.034462	
0.755294	0.133163	0.234358	0.160104	0.156447	4.699440	0.034656	
0.761897	0.131864	0.201328	0.151850	0.149177	4.525181	0.034973	
0.769353	0.130242	0.162243	0.142688	0.140973	4.329578	0.035315	
0.775956	0.129493	0.140916	0.137231	0.135945	4.199283	0.035652	
0.780195	0.129143	0.129414	0.134085	0.133004	4.119585	0.035898	
0.782305	0.128827	0.120930	0.132029	0.131088	4.070180	0.036027	
0.786544	0.128099	0.102231	0.127724	0.127055	3.967400	0.036284	
0.793147	0.127580	0.086805	0.123804	0.123323	3.866543	0.036605	
0.800603	0.127161	0.072743	0.119975	0.119639	3.763398	0.036982	
0.807206	0.126605	0.056593	0.116020	0.115817	3.659164	0.037341	
0.811445	0.126337	0.048725	0.114089	0.113939	3.607486	0.037528	
0.813555	0.126308	0.047271	0.113614	0.113473	3.593556	0.037592	
0.817794	0.126261	0.044583	0.112679	0.112553	3.565737	0.037724	
0.824397	0.125935	0.034331	0.110039	0.109965	3.492750	0.038018	
0.831853	0.125685	0.026332	0.107964	0.107921	3.434651	0.038262	
0.838456	0.125627	0.023528	0.107027	0.106993	3.406690	0.038401	
0.842695	0.125547	0.020588	0.106175	0.106148	3.381944	0.038517	
0.844805	0.125467	0.018113	0.105550	0.105530	3.364377	0.038593	
0.849044	0.125353	0.014468	0.104619	0.104606	3.337961	0.038710	
0.855647	0.125332	0.013220	0.104153	0.104142	3.323734	0.038786	
0.863103	0.125262	0.010457	0.103307	0.103300	3.298709	0.038911	
0.869706	0.125166	0.007229	0.102432	0.102429	3.273366	0.039032	
0.873945	0.125150	0.006554	0.102214	0.102211	3.266821	0.039066	
0.876055	0.125162	0.006767	0.102229	0.102227	3.267026	0.039068	
0.880294	0.125156	0.006350	0.102056	0.102053	3.261644	0.039098	
0.886897	0.125093	0.004133	0.101430	0.101429	3.243305	0.039189	
0.894353	0.125073	0.003291	0.101161	0.101160	3.235240	0.039231	
0.900956	0.125074	0.003169	0.101071	0.101071	3.232339	0.039250	
0.905195	0.125056	0.002462	0.100856	0.100856	3.225943	0.039283	
0.907305	0.125041	0.001942	0.100710	0.100710	3.221651	0.039304	
0.911544	0.125030	0.001509	0.100579	0.100579	3.217767	0.039324	
0.918147	0.125037	0.001671	0.100594	0.100594	3.218048	0.039325	
0.925603	0.125025	0.001164	0.100425	0.100425	3.212945	0.039352	
0.932206	0.125012	0.000653	0.100269	0.100269	3.208288	0.039377	
0.936445	0.125014	0.000718	0.100278	0.100278	3.208538	0.039376	
0.938555	0.125018	0.000823	0.100303	0.100303	3.209235	0.039373	
0.942794	0.125016	0.000749	0.100272	0.100272	3.208288	0.039378	
0.949397	0.125006	0.000351	0.100147	0.100147	3.204525	0.039398	
0.956853	0.125006	0.000323	0.100131	0.100131	3.204045	0.039401	
0.963456	0.125008	0.000364	0.100136	0.100136	3.204165	0.039401	
0.967695	0.125004	0.000229	0.100092	0.100092	3.202822	0.039408	
0.969805	0.125002	0.000140	0.100063	0.100063	3.201970	0.039413	
0.974044	0.125001	0.000099	0.100048	0.100048	3.201512	0.039415	
0.980647	0.125004	0.000178	0.100070	0.100070	3.202147	0.039412	
0.988103	0.125002	0.000107	0.100044	0.100044	3.201358	0.039416	
0.994706	0.125000	0.000030	0.100018	0.100018	3.200557	0.039421	
0.998945	0.125001	0.000057	0.100025	0.100025	3.200789	0.039419	
