TITLE = "DG1DBEX32-P5RK4w1000iv80"
VARIABLES = "x" "Density" "Velocity in x" "Energy" "Pressure" "Temperature" "Fugacity"
ZONE T = "Final Time 0.10"
I = 192, J = 1, K = 1, F = POINT

0.001055	1.264169	0.000000	1.120063	1.120063	3.995159	0.282882	
0.005294	1.264169	0.000000	1.120063	1.120063	3.995159	0.282882	
0.011897	1.264169	0.000000	1.120063	1.120063	3.995159	0.282882	
0.019353	1.264169	0.000000	1.120063	1.120063	3.995159	0.282882	
0.025956	1.264169	0.000000	1.120063	1.120063	3.995159	0.282882	
0.030195	1.264169	0.000000	1.120063	1.120063	3.995159	0.282882	
0.032305	1.264169	0.000000	1.120063	1.120063	3.995159	0.282882	
0.036544	1.264169	0.000000	1.120063	1.120063	3.995159	0.282882	
0.043147	1.264169	0.000000	1.120063	1.120063	3.995159	0.282882	
0.050603	1.264169	0.000000	1.120063	1.120063	3.995159	0.282882	
0.057206	1.264169	0.000000	1.120063	1.120063	3.995159	0.282882	
0.061445	1.264169	0.000000	1.120063	1.120063	3.995159	0.282882	
0.063555	1.264169	0.000000	1.120063	1.120063	3.995159	0.282882	
0.067794	1.264169	0.000000	1.120063	1.120063	3.995159	0.282882	
0.074397	1.264169	-0.000000	1.120063	1.120063	3.995159	0.282882	
0.081853	1.264169	0.000000	1.120063	1.120063	3.995159	0.282882	
0.088456	1.264169	0.000000	1.120063	1.120063	3.995159	0.282882	
0.092695	1.264169	-0.000000	1.120063	1.120063	3.995159	0.282882	
0.094805	1.264169	-0.000000	1.120063	1.120063	3.995159	0.282882	
0.099044	1.264169	0.000000	1.120063	1.120063	3.995159	0.282882	
0.105647	1.264169	-0.000000	1.120063	1.120063	3.995159	0.282882	
0.113103	1.264169	0.000000	1.120063	1.120063	3.995159	0.282882	
0.119706	1.264169	0.000000	1.120063	1.120063	3.995159	0.282882	
0.123945	1.264169	-0.000000	1.120063	1.120063	3.995159	0.282882	
0.126055	1.264169	-0.000000	1.120063	1.120063	3.995159	0.282882	
0.130294	1.264169	0.000000	1.120063	1.120063	3.995158	0.282882	
0.136897	1.264169	-0.000000	1.120063	1.120063	3.995159	0.282882	
0.144353	1.264169	-0.000000	1.120063	1.120063	3.995159	0.282882	
0.150956	1.264169	0.000000	1.120063	1.120063	3.995158	0.282882	
0.155195	1.264169	-0.000000	1.120063	1.120063	3.995159	0.282882	
0.157305	1.264169	-0.000000	1.120063	1.120063	3.995160	0.282882	
0.161544	1.264169	0.000000	1.120062	1.120062	3.995158	0.282882	
0.168147	1.264169	0.000000	1.120062	1.120062	3.995158	0.282882	
0.175603	1.264169	-0.000000	1.120063	1.120063	3.995160	0.282882	
0.182206	1.264168	0.000003	1.120058	1.120058	3.995150	0.282882	
0.186445	1.264166	0.000006	1.120055	1.120055	3.995136	0.282882	
0.188555	1.264171	-0.000003	1.120069	1.120069	3.995168	0.282882	
0.192794	1.264169	0.000001	1.120059	1.120059	3.995157	0.282882	
0.199397	1.264159	0.000021	1.120034	1.120034	3.995090	0.282882	
0.206853	1.264152	0.000033	1.120007	1.120007	3.995047	0.282882	
0.213456	1.264032	0.000276	1.119633	1.119633	3.994292	0.282882	
0.217695	1.263790	0.000762	1.118857	1.118856	3.992219	0.282897	
0.219805	1.263602	0.001109	1.118285	1.118284	3.990488	0.282912	
0.224044	1.263084	0.002137	1.116692	1.116689	3.986675	0.282927	
0.230647	1.261713	0.004820	1.112546	1.112532	3.976405	0.282973	
0.238103	1.258973	0.010113	1.104486	1.104421	3.955927	0.283063	
0.244706	1.255150	0.017423	1.093608	1.093417	3.928739	0.283154	
0.248945	1.251891	0.023601	1.084601	1.084253	3.906245	0.283214	
0.251055	1.250017	0.027130	1.079521	1.079061	3.892973	0.283260	
0.255294	1.245750	0.035135	1.068144	1.067375	3.864339	0.283320	
0.261897	1.237783	0.049996	1.047607	1.046060	3.811965	0.283411	
0.269353	1.226969	0.070016	1.020991	1.017984	3.742096	0.283517	
0.275956	1.215977	0.090259	0.995178	0.990225	3.673351	0.283577	
0.280195	1.208311	0.104334	0.977879	0.971303	3.626197	0.283607	
0.282305	1.204341	0.111600	0.969141	0.961641	3.601924	0.283622	
0.286544	1.196069	0.126740	0.951388	0.941782	3.552129	0.283637	
0.293147	1.182392	0.151732	0.923220	0.909609	3.470420	0.283668	
0.300603	1.166023	0.181580	0.891384	0.872161	3.374081	0.283698	
0.307206	1.151014	0.208948	0.863937	0.838811	3.287327	0.283713	
0.311445	1.141170	0.226876	0.846815	0.817445	3.231341	0.283713	
0.313555	1.136190	0.235904	0.838414	0.806799	3.203199	0.283713	
0.317794	1.126101	0.254250	0.821900	0.785503	3.146567	0.283713	
0.324397	1.110105	0.283317	0.797136	0.752583	3.058222	0.283698	
0.331853	1.091686	0.316716	0.770646	0.715893	2.957980	0.283683	
0.338456	1.075140	0.346724	0.748637	0.684012	2.869773	0.283653	
0.342695	1.064423	0.366165	0.735230	0.663872	2.813230	0.283637	
0.344805	1.059061	0.375889	0.728775	0.653956	2.785333	0.283622	
0.349044	1.048248	0.395508	0.716234	0.634247	2.729116	0.283607	
0.355647	1.031286	0.426254	0.697873	0.604185	2.642584	0.283562	
0.363103	1.012004	0.461199	0.678822	0.571193	2.545730	0.283517	
0.369706	0.994849	0.492278	0.663445	0.542900	2.461487	0.283456	
0.373945	0.983810	0.512269	0.654292	0.525207	2.407816	0.283426	
0.376055	0.978309	0.522231	0.649938	0.516534	2.381287	0.283411	
0.380294	0.967260	0.542241	0.641614	0.499415	2.328753	0.283366	
0.386897	0.950052	0.573375	0.629689	0.473519	2.247851	0.283305	
0.394353	0.930681	0.608415	0.617729	0.445474	2.158582	0.283230	
0.400956	0.913643	0.639237	0.608442	0.421773	2.081966	0.283139	
0.405195	0.902796	0.658853	0.603090	0.407144	2.033656	0.283094	
0.407305	0.897433	0.668552	0.600601	0.400042	2.010109	0.283063	
0.411544	0.886747	0.687863	0.595930	0.386146	1.963589	0.283003	
0.418147	0.870411	0.717359	0.589524	0.365565	1.893708	0.282897	
0.425603	0.852636	0.749406	0.583510	0.344085	1.819627	0.282746	
0.432206	0.837803	0.776089	0.579209	0.326898	1.759256	0.282595	
0.436445	0.828922	0.792021	0.576944	0.316953	1.723795	0.282489	
0.438555	0.824737	0.799511	0.575951	0.312357	1.707363	0.282429	
0.442794	0.816896	0.813494	0.574221	0.303921	1.677104	0.282293	
0.449397	0.806514	0.831862	0.572191	0.293139	1.638309	0.282051	
0.456853	0.797971	0.846714	0.570763	0.284721	1.607939	0.281764	
0.463456	0.793359	0.854492	0.570103	0.280465	1.592877	0.281523	
0.467695	0.791665	0.857222	0.569892	0.279022	1.588028	0.281387	
0.469805	0.791060	0.858140	0.569812	0.278542	1.586466	0.281326	
0.474044	0.790171	0.859401	0.569718	0.277919	1.584633	0.281206	
0.480647	0.789436	0.860250	0.569651	0.277548	1.583844	0.281055	
0.488103	0.789061	0.860430	0.569620	0.277534	1.584501	0.280903	
0.494706	0.788811	0.860406	0.569594	0.277617	1.585227	0.280783	
0.498945	0.788618	0.860357	0.569558	0.277684	1.585970	0.280677	
0.501055	0.788510	0.860315	0.569525	0.277720	1.586402	0.280616	
0.505294	0.788304	0.860217	0.569457	0.277795	1.587088	0.280511	
0.511897	0.787957	0.860102	0.569356	0.277900	1.588295	0.280329	
0.519353	0.787404	0.860064	0.569214	0.277988	1.589759	0.280073	
0.525956	0.786767	0.860050	0.569049	0.278069	1.591104	0.279801	
0.530195	0.786292	0.860030	0.568926	0.278135	1.592234	0.279589	
0.532305	0.786016	0.860023	0.568853	0.278168	1.593079	0.279453	
0.536544	0.785439	0.860036	0.568702	0.278223	1.594232	0.279212	
0.543147	0.783812	0.860254	0.568280	0.278254	1.597251	0.278547	
0.550603	0.779813	0.860821	0.567175	0.278249	1.604007	0.276961	
0.557206	0.770461	0.862192	0.564609	0.278238	1.620514	0.273215	
0.561445	0.757668	0.863969	0.561039	0.278261	1.643674	0.268080	
0.563555	0.747883	0.865331	0.558257	0.278250	1.661947	0.264137	
0.567794	0.719357	0.869222	0.549930	0.278176	1.717602	0.252612	
0.574397	0.645639	0.878776	0.527318	0.278021	1.885157	0.222433	
0.581853	0.531001	0.892638	0.489594	0.278043	2.243463	0.174778	
0.588456	0.428044	0.904081	0.453206	0.278273	2.735068	0.132168	
0.592695	0.371656	0.908752	0.432000	0.278538	3.124072	0.109345	
0.594805	0.347092	0.910497	0.422482	0.278612	3.333289	0.099617	
0.599044	0.305183	0.911628	0.405627	0.278813	3.768913	0.083410	
0.605647	0.257187	0.908542	0.385160	0.279012	4.445815	0.065601	
0.613103	0.222381	0.900028	0.369160	0.279090	5.118537	0.053352	
0.619706	0.203327	0.890722	0.359745	0.279087	5.586252	0.046917	
0.623945	0.195067	0.884860	0.355443	0.279076	5.816895	0.044198	
0.626055	0.191845	0.882075	0.353709	0.279076	5.910426	0.043156	
0.630294	0.186747	0.877081	0.350903	0.279074	6.068250	0.041509	
0.636897	0.181590	0.870870	0.347937	0.279077	6.236581	0.039863	
0.644353	0.178410	0.865972	0.346002	0.279107	6.347196	0.038851	
0.650956	0.176965	0.863319	0.345088	0.279141	6.397282	0.038398	
0.655195	0.176439	0.862378	0.344734	0.279126	6.416290	0.038232	
0.657305	0.176252	0.862113	0.344597	0.279098	6.423542	0.038171	
0.661544	0.175995	0.861719	0.344388	0.279044	6.430978	0.038096	
0.668147	0.175798	0.861928	0.344283	0.278981	6.437562	0.038035	
0.675603	0.175724	0.862557	0.344293	0.278923	6.437401	0.038020	
0.682206	0.175771	0.862450	0.344348	0.278977	6.435546	0.038035	
0.686445	0.175793	0.862293	0.344393	0.279037	6.437186	0.038035	
0.688555	0.175800	0.862200	0.344421	0.279077	6.437681	0.038035	
0.692794	0.175898	0.861688	0.344472	0.279169	6.434360	0.038066	
0.699397	0.175896	0.861653	0.344556	0.279259	6.439484	0.038050	
0.706853	0.175837	0.862194	0.344588	0.279232	6.440429	0.038035	
0.713456	0.175837	0.862462	0.344638	0.279241	6.440375	0.038035	
0.717695	0.175864	0.862680	0.344644	0.279204	6.437108	0.038050	
0.719805	0.175874	0.862790	0.344659	0.279198	6.437856	0.038050	
0.724044	0.175908	0.863023	0.344687	0.279178	6.435090	0.038066	
0.730647	0.175883	0.863473	0.344784	0.279217	6.438501	0.038050	
0.738103	0.175900	0.863481	0.344917	0.279342	6.439756	0.038050	
0.744706	0.175944	0.863162	0.345064	0.279521	6.442978	0.038050	
0.748945	0.175951	0.863358	0.345107	0.279531	6.443503	0.038050	
0.751055	0.175978	0.863414	0.345127	0.279533	6.440210	0.038066	
0.755294	0.176045	0.863262	0.345208	0.279612	6.439833	0.038081	
0.761897	0.176047	0.863378	0.345373	0.279758	6.445259	0.038066	
0.769353	0.176004	0.864192	0.345502	0.279779	6.447359	0.038050	
0.775956	0.175983	0.865209	0.345569	0.279700	6.445834	0.038050	
0.780195	0.175997	0.866003	0.345604	0.279609	6.441581	0.038066	
0.782305	0.176038	0.865700	0.345791	0.279827	6.444567	0.038066	
0.786544	0.176128	0.865443	0.345935	0.279975	6.445963	0.038081	
0.793147	0.176092	0.866336	0.346102	0.280020	6.448542	0.038066	
0.800603	0.176023	0.864121	0.346134	0.280415	6.459279	0.038020	
0.807206	0.175814	0.859884	0.344178	0.279179	6.438702	0.038035	
0.811445	0.175125	0.856626	0.341207	0.276953	6.414525	0.037960	
0.813555	0.174965	0.847730	0.339806	0.276937	6.418497	0.037915	
0.817794	0.173404	0.828663	0.332690	0.273154	6.387920	0.037673	
0.824397	0.167293	0.749172	0.303048	0.256100	6.203448	0.036903	
0.831853	0.145859	0.373362	0.188025	0.177859	4.941362	0.036072	
0.838456	0.128268	-0.004962	0.101677	0.101675	3.216162	0.039229	
0.842695	0.127094	-0.021007	0.098193	0.098165	3.132705	0.039380	
0.844805	0.131067	0.037758	0.106744	0.106650	3.302867	0.039546	
0.849044	0.128943	0.008939	0.103414	0.103409	3.252651	0.039214	
0.855647	0.128290	-0.006946	0.100239	0.100236	3.169376	0.039516	
0.863103	0.128855	0.004115	0.102028	0.102027	3.212474	0.039425	
0.869706	0.128489	-0.001966	0.101200	0.101200	3.196782	0.039410	
0.873945	0.128554	-0.002943	0.100880	0.100880	3.184915	0.039501	
0.876055	0.128793	0.002975	0.101807	0.101806	3.206886	0.039440	
0.880294	0.128628	0.000322	0.101505	0.101505	3.201156	0.039425	
0.886897	0.128619	-0.000262	0.101366	0.101366	3.198221	0.039440	
0.894353	0.128638	0.000178	0.101433	0.101433	3.199169	0.039440	
0.900956	0.128619	-0.000177	0.101385	0.101385	3.198213	0.039440	
0.905195	0.128636	0.000046	0.101404	0.101404	3.199057	0.039440	
0.907305	0.128640	0.000209	0.101438	0.101438	3.199272	0.039440	
0.911544	0.128625	-0.000066	0.101399	0.101399	3.198527	0.039440	
0.918147	0.128631	0.000017	0.101408	0.101408	3.198803	0.039440	
0.925603	0.128629	-0.000003	0.101407	0.101407	3.198724	0.039440	
0.932206	0.128629	-0.000009	0.101405	0.101405	3.198720	0.039440	
0.936445	0.128631	0.000027	0.101410	0.101410	3.198826	0.039440	
0.938555	0.128629	-0.000003	0.101407	0.101407	3.198720	0.039440	
0.942794	0.128629	-0.000006	0.101406	0.101406	3.198726	0.039440	
0.949397	0.128630	0.000003	0.101407	0.101407	3.198749	0.039440	
0.956853	0.128630	-0.000002	0.101407	0.101407	3.198736	0.039440	
0.963456	0.128630	0.000001	0.101407	0.101407	3.198744	0.039440	
0.967695	0.128630	0.000001	0.101407	0.101407	3.198744	0.039440	
0.969805	0.128630	-0.000002	0.101407	0.101407	3.198736	0.039440	
0.974044	0.128630	0.000000	0.101407	0.101407	3.198742	0.039440	
0.980647	0.128630	0.000000	0.101407	0.101407	3.198741	0.039440	
0.988103	0.128630	-0.000000	0.101407	0.101407	3.198741	0.039440	
0.994706	0.128630	0.000000	0.101407	0.101407	3.198742	0.039440	
0.998945	0.128630	-0.000000	0.101407	0.101407	3.198741	0.039440	
