TITLE = "DG1DFDX32-P4RK4w10iv80"
VARIABLES = "x" "Density" "Velocity in x" "Energy" "Pressure" "Temperature" "Fugacity"
ZONE T = "Final Time 0.10"
I = 160, J = 1, K = 1, F = POINT

0.001466	0.837358	0.000948	0.911398	0.911398	3.992460	0.282354	
0.007211	0.837304	0.001202	0.910899	0.910898	3.990506	0.282414	
0.015625	0.837234	0.001549	0.910199	0.910198	3.987683	0.282505	
0.024039	0.837207	0.001703	0.909830	0.909829	3.985993	0.282565	
0.029784	0.837170	0.001891	0.909463	0.909461	3.984564	0.282610	
0.032716	0.837118	0.002138	0.909034	0.909032	3.982641	0.282671	
0.038461	0.837015	0.002646	0.908138	0.908135	3.979149	0.282776	
0.046875	0.836919	0.003152	0.907182	0.907178	3.975387	0.282897	
0.055289	0.836846	0.003556	0.906416	0.906410	3.972189	0.283003	
0.061034	0.836696	0.004258	0.905259	0.905251	3.967561	0.283139	
0.063966	0.836586	0.004768	0.904432	0.904422	3.964380	0.283230	
0.069711	0.836434	0.005515	0.903154	0.903142	3.959387	0.283381	
0.078125	0.836286	0.006295	0.901755	0.901738	3.953736	0.283562	
0.086539	0.836023	0.007522	0.899772	0.899748	3.945945	0.283788	
0.092284	0.835669	0.009081	0.897382	0.897347	3.936968	0.284030	
0.095216	0.835509	0.009809	0.896233	0.896193	3.932646	0.284151	
0.100961	0.835314	0.010782	0.894595	0.894546	3.925898	0.284362	
0.109375	0.834970	0.012396	0.892018	0.891954	3.916013	0.284649	
0.117789	0.834275	0.015336	0.887726	0.887628	3.899753	0.285072	
0.123534	0.833700	0.017784	0.884147	0.884015	3.886073	0.285435	
0.126466	0.833524	0.018610	0.882846	0.882702	3.880989	0.285586	
0.132211	0.833190	0.020167	0.880430	0.880260	3.871677	0.285858	
0.140625	0.832304	0.023811	0.875322	0.875086	3.852507	0.286341	
0.149039	0.830973	0.029110	0.868159	0.867807	3.825948	0.286976	
0.154784	0.830263	0.032118	0.863910	0.863482	3.809646	0.287414	
0.157716	0.830023	0.033220	0.862279	0.861821	3.803089	0.287610	
0.163461	0.829208	0.036469	0.857955	0.857404	3.786940	0.288003	
0.171875	0.827348	0.043470	0.849163	0.848381	3.754758	0.288697	
0.180289	0.825409	0.050912	0.839769	0.838699	3.719873	0.289498	
0.186034	0.824526	0.054565	0.834945	0.833717	3.701221	0.289996	
0.188966	0.823935	0.056819	0.832170	0.830840	3.691084	0.290223	
0.194711	0.822126	0.063226	0.824797	0.823154	3.664347	0.290722	
0.203125	0.819130	0.073883	0.812670	0.810435	3.620337	0.291552	
0.211539	0.816733	0.082840	0.802234	0.799432	3.580528	0.292459	
0.217284	0.815099	0.088741	0.795647	0.792438	3.556067	0.292957	
0.220216	0.813708	0.093342	0.790930	0.787385	3.539055	0.293199	
0.225961	0.810688	0.103334	0.780807	0.776479	3.502564	0.293712	
0.234375	0.806886	0.116434	0.767335	0.761865	3.451951	0.294619	
0.242789	0.803656	0.127674	0.755937	0.749387	3.408289	0.295449	
0.248534	0.800222	0.138495	0.746103	0.738429	3.372595	0.295797	
0.251466	0.797921	0.145569	0.739910	0.731455	3.350369	0.295948	
0.257211	0.794208	0.157523	0.729184	0.719331	3.309661	0.296461	
0.265625	0.789855	0.172009	0.716139	0.704454	3.258496	0.297277	
0.274039	0.784438	0.188691	0.702548	0.688583	3.206604	0.297685	
0.279784	0.778795	0.205191	0.690198	0.673803	3.160636	0.297685	
0.282716	0.776248	0.212892	0.684360	0.666769	3.137871	0.297806	
0.288461	0.772589	0.224639	0.675161	0.655667	3.099696	0.298304	
0.296875	0.766791	0.242262	0.662416	0.639914	3.047937	0.298621	
0.305289	0.757889	0.267212	0.646575	0.619517	2.985890	0.298123	
0.311034	0.751454	0.285598	0.635183	0.604537	2.938633	0.297926	
0.313966	0.749502	0.291776	0.631077	0.599174	2.919923	0.298138	
0.319711	0.745414	0.304080	0.623433	0.588971	2.885961	0.298274	
0.328125	0.736276	0.328875	0.610227	0.570410	2.830455	0.297337	
0.336539	0.724857	0.359542	0.595175	0.548324	2.764655	0.295963	
0.342284	0.719809	0.374262	0.587637	0.537224	2.727676	0.295872	
0.345216	0.717940	0.379946	0.584718	0.532898	2.712834	0.295918	
0.350961	0.711341	0.397171	0.577436	0.521331	2.679404	0.294845	
0.359375	0.698436	0.429904	0.565043	0.500502	2.621598	0.292247	
0.367789	0.687882	0.458102	0.554525	0.482346	2.566246	0.290661	
0.373534	0.683793	0.469680	0.550147	0.474725	2.541136	0.290299	
0.376466	0.679884	0.479294	0.547255	0.469162	2.526475	0.289317	
0.382211	0.669609	0.503859	0.540602	0.455604	2.493128	0.286371	
0.390625	0.656124	0.537370	0.531840	0.437106	2.443339	0.282897	
0.399039	0.648074	0.558439	0.526336	0.425284	2.407719	0.281221	
0.404784	0.640762	0.575791	0.522866	0.416648	2.387304	0.278864	
0.407716	0.633949	0.591058	0.520295	0.409560	2.373569	0.276297	
0.413461	0.622626	0.617265	0.515967	0.397352	2.347145	0.272264	
0.421875	0.612556	0.642147	0.511760	0.385465	2.316488	0.269152	
0.430289	0.603151	0.663554	0.509004	0.376219	2.298386	0.265512	
0.436034	0.589420	0.693117	0.506279	0.364697	2.283703	0.259394	
0.438966	0.582997	0.707338	0.505024	0.359180	2.275622	0.256615	
0.444711	0.575314	0.724901	0.503410	0.352251	2.263611	0.253443	
0.453125	0.566932	0.743383	0.502009	0.345360	2.254385	0.249727	
0.461539	0.550903	0.776120	0.500619	0.334697	2.253339	0.241586	
0.467284	0.535193	0.808109	0.499599	0.324848	2.256407	0.233429	
0.470216	0.532566	0.813698	0.499394	0.323087	2.255963	0.232130	
0.475961	0.529195	0.820971	0.499089	0.320752	2.255103	0.230484	
0.484375	0.515388	0.846811	0.498781	0.313992	2.271575	0.222630	
0.492789	0.493615	0.888312	0.498480	0.303724	2.302266	0.210259	
0.498534	0.487491	0.898989	0.498411	0.301420	2.316175	0.206573	
0.501466	0.484829	0.903546	0.498369	0.300464	2.322453	0.204972	
0.507211	0.478638	0.914267	0.498300	0.298257	2.337812	0.201241	
0.515625	0.456461	0.951840	0.497991	0.291214	2.402771	0.187783	
0.524039	0.441807	0.976415	0.497669	0.287063	2.453515	0.178902	
0.529784	0.437763	0.981064	0.497348	0.286677	2.474766	0.176213	
0.532716	0.434767	0.984918	0.497132	0.286256	2.489604	0.174280	
0.538461	0.418212	1.010100	0.496086	0.282735	2.564017	0.164175	
0.546875	0.400665	1.035704	0.494632	0.279739	2.656519	0.153511	
0.555289	0.390607	1.047456	0.493151	0.278870	2.721559	0.147288	
0.561034	0.381722	1.056979	0.491464	0.278233	2.782758	0.141865	
0.563966	0.374670	1.065222	0.490173	0.277604	2.832547	0.137651	
0.569711	0.359661	1.083622	0.487360	0.276197	2.943746	0.128905	
0.578125	0.348317	1.094639	0.484462	0.275780	3.041485	0.122304	
0.586539	0.336360	1.102080	0.480118	0.275850	3.157030	0.115417	
0.592284	0.323800	1.111954	0.475714	0.275534	3.283126	0.108468	
0.595216	0.316377	1.118257	0.473110	0.275296	3.360834	0.104481	
0.600961	0.307899	1.123068	0.469584	0.275410	3.459944	0.099919	
0.609375	0.298262	1.123753	0.464062	0.275736	3.581992	0.094814	
0.617789	0.283431	1.125289	0.455407	0.275956	3.781307	0.087262	
0.623534	0.272388	1.126588	0.448918	0.276060	3.943766	0.081824	
0.626466	0.268130	1.126085	0.446134	0.276131	4.009937	0.079770	
0.632211	0.263405	1.121869	0.442016	0.276257	4.085694	0.077519	
0.640625	0.252172	1.111973	0.432094	0.276191	4.274277	0.072308	
0.649039	0.238909	1.100215	0.420568	0.275972	4.517632	0.066372	
0.654784	0.232209	1.091370	0.414019	0.275729	4.648680	0.063472	
0.657716	0.230316	1.086572	0.411511	0.275551	4.683599	0.062686	
0.663461	0.225299	1.074182	0.404885	0.274902	4.779746	0.060617	
0.671875	0.214196	1.049224	0.391484	0.273583	5.010773	0.056116	
0.680289	0.205579	1.025343	0.380193	0.272127	5.200417	0.052747	
0.686034	0.201915	1.010233	0.373978	0.270944	5.272949	0.051403	
0.688966	0.200194	1.001741	0.370641	0.270195	5.306208	0.050784	
0.694711	0.194307	0.977055	0.360896	0.268150	5.426991	0.048669	
0.703125	0.186329	0.941112	0.347647	0.265132	5.602906	0.045845	
0.711539	0.181479	0.911791	0.337575	0.262138	5.690489	0.044259	
0.717284	0.178476	0.889721	0.330250	0.259609	5.733088	0.043337	
0.720216	0.176278	0.874717	0.325397	0.257959	5.767013	0.042657	
0.725961	0.171349	0.841167	0.315015	0.254395	5.852790	0.041117	
0.734375	0.166918	0.805061	0.304182	0.250090	5.911779	0.039818	
0.742789	0.163471	0.769976	0.293745	0.245287	5.921044	0.038942	
0.748534	0.160351	0.738298	0.284727	0.241024	5.932350	0.038141	
0.751466	0.158350	0.718642	0.279381	0.238492	5.944747	0.037612	
0.757211	0.155456	0.687684	0.271070	0.234311	5.950939	0.036887	
0.765625	0.152884	0.653353	0.261547	0.228916	5.915189	0.036374	
0.774039	0.149636	0.608694	0.249608	0.221887	5.859519	0.035755	
0.779784	0.146938	0.571963	0.240311	0.216276	5.816801	0.035226	
0.782716	0.145689	0.554306	0.235928	0.213546	5.790830	0.034999	
0.788461	0.144267	0.530726	0.229778	0.209460	5.736150	0.034818	
0.796875	0.142080	0.491726	0.219604	0.202426	5.630106	0.034607	
0.805289	0.139198	0.441641	0.207315	0.193740	5.502137	0.034289	
0.811034	0.137409	0.409268	0.199569	0.188061	5.408037	0.034138	
0.813966	0.136806	0.397003	0.196513	0.185732	5.365292	0.034123	
0.819711	0.135867	0.375794	0.191007	0.181414	5.278223	0.034169	
0.828125	0.133806	0.332117	0.180387	0.173007	5.110456	0.034199	
0.836539	0.131775	0.288372	0.170120	0.164641	4.939416	0.034259	
0.842284	0.130820	0.265811	0.164679	0.160058	4.834694	0.034380	
0.845216	0.130504	0.257206	0.162455	0.158138	4.790802	0.034456	
0.850961	0.129645	0.235271	0.157044	0.153456	4.679745	0.034637	
0.859375	0.128099	0.197365	0.148200	0.145705	4.495849	0.034924	
0.867789	0.127009	0.168911	0.141473	0.139661	4.345949	0.035226	
0.873534	0.126543	0.155207	0.138015	0.136491	4.260490	0.035452	
0.876466	0.126306	0.148088	0.136210	0.134825	4.216413	0.035573	
0.882211	0.125618	0.129092	0.131706	0.130659	4.109117	0.035845	
0.890625	0.124779	0.105659	0.126208	0.125512	3.972405	0.036223	
0.899039	0.124314	0.091206	0.122588	0.122071	3.879474	0.036525	
0.904784	0.124049	0.082480	0.120328	0.119906	3.816632	0.036751	
0.907716	0.123856	0.076605	0.118890	0.118527	3.780527	0.036872	
0.913461	0.123447	0.064405	0.115991	0.115735	3.702191	0.037144	
0.921875	0.123117	0.053874	0.113370	0.113191	3.630438	0.037416	
0.930289	0.122914	0.046678	0.111434	0.111300	3.576173	0.037643	
0.936034	0.122731	0.040513	0.109845	0.109745	3.529556	0.037839	
0.938966	0.122607	0.036567	0.108877	0.108795	3.503319	0.037945	
0.944711	0.122434	0.030934	0.107474	0.107415	3.463833	0.038111	
0.953125	0.122331	0.027058	0.106392	0.106347	3.431478	0.038262	
0.961539	0.122212	0.022651	0.105172	0.105140	3.396030	0.038428	
0.967284	0.122095	0.018633	0.104126	0.104105	3.366317	0.038564	
0.970216	0.122038	0.016701	0.103631	0.103614	3.350390	0.038640	
0.975961	0.121992	0.014954	0.103143	0.103129	3.337653	0.038700	
0.984375	0.121953	0.013277	0.102618	0.102608	3.320362	0.038791	
0.992789	0.121873	0.010354	0.101795	0.101788	3.296037	0.038911	
0.998534	0.121815	0.008296	0.101229	0.101225	3.280473	0.038987	
