TITLE = "DG1DMBX16-P4RK3w10iv20"
VARIABLES = "x" "Density" "Velocity in x" "Energy" "Pressure" "Temperature" "Fugacity"
ZONE T = "Final Time 0.10"
I = 80, J = 1, K = 1, F = POINT

0.002932	0.999974	-0.000000	0.999445	0.999445	3.997881	0.282162	
0.014423	0.999974	-0.000000	0.999445	0.999445	3.997880	0.282162	
0.031250	0.999974	0.000000	0.999444	0.999444	3.997878	0.282162	
0.048077	0.999975	-0.000000	0.999445	0.999445	3.997882	0.282162	
0.059568	0.999974	-0.000000	0.999445	0.999445	3.997884	0.282162	
0.065432	0.999974	0.000001	0.999442	0.999442	3.997873	0.282162	
0.076923	0.999975	-0.000000	0.999444	0.999444	3.997876	0.282163	
0.093750	0.999974	-0.000001	0.999446	0.999446	3.997888	0.282162	
0.110577	0.999974	0.000001	0.999441	0.999441	3.997868	0.282163	
0.122068	0.999975	-0.000002	0.999444	0.999444	3.997873	0.282163	
0.127932	0.999973	0.000000	0.999448	0.999448	3.997899	0.282161	
0.139423	0.999975	-0.000001	0.999446	0.999446	3.997886	0.282162	
0.156250	0.999974	0.000001	0.999440	0.999440	3.997864	0.282163	
0.173077	0.999973	0.000002	0.999445	0.999445	3.997888	0.282162	
0.184568	0.999983	-0.000013	0.999460	0.999460	3.997908	0.282164	
0.190432	0.999968	0.000003	0.999445	0.999445	3.997909	0.282160	
0.201923	0.999972	0.000009	0.999429	0.999429	3.997828	0.282163	
0.218750	0.999980	-0.000009	0.999452	0.999452	3.997888	0.282164	
0.235577	0.999962	0.000008	0.999457	0.999457	3.997981	0.282155	
0.247068	1.000010	-0.000015	0.999424	0.999424	3.997653	0.282181	
0.252932	0.999965	0.000001	0.999422	0.999422	3.997829	0.282162	
0.264423	0.999953	0.000023	0.999426	0.999426	3.997891	0.282156	
0.281250	1.000011	-0.000043	0.999508	0.999508	3.997988	0.282169	
0.298077	0.999907	0.000052	0.999391	0.999391	3.997938	0.282141	
0.309568	1.000053	0.000150	0.998987	0.998987	3.995735	0.282260	
0.315432	0.999993	0.000183	0.998715	0.998715	3.994890	0.282273	
0.326923	0.999713	0.000819	0.997451	0.997450	3.990948	0.282333	
0.343750	0.999563	0.002600	0.993081	0.993077	3.974046	0.282891	
0.360577	0.997955	0.007953	0.982097	0.982065	3.936309	0.283786	
0.372068	0.996209	0.015844	0.967441	0.967316	3.883987	0.285192	
0.377932	0.995125	0.021249	0.957055	0.956830	3.846070	0.286282	
0.389423	0.988997	0.038934	0.928694	0.927945	3.753073	0.288023	
0.406250	0.975140	0.083341	0.866286	0.862900	3.539591	0.292426	
0.423077	0.946682	0.157664	0.782532	0.770766	3.256703	0.295965	
0.434568	0.915736	0.231220	0.719064	0.694586	3.034001	0.296611	
0.440432	0.901428	0.271239	0.687660	0.654501	2.904285	0.298426	
0.451923	0.852546	0.370733	0.631944	0.573356	2.690089	0.293264	
0.468750	0.767399	0.540298	0.573958	0.461948	2.407863	0.279017	
0.485577	0.665658	0.724224	0.549633	0.375064	2.253797	0.250160	
0.497068	0.573644	0.876972	0.546820	0.326231	2.274801	0.214583	
0.502932	0.556675	0.902785	0.546236	0.319385	2.294949	0.207319	
0.514423	0.463098	1.035482	0.543315	0.295043	2.548432	0.163667	
0.531250	0.356802	1.144490	0.518572	0.284892	3.193836	0.112641	
0.548077	0.269096	1.144599	0.461640	0.285367	4.241865	0.073715	
0.559568	0.220196	1.080527	0.408205	0.279661	5.080213	0.055118	
0.565432	0.206471	1.000773	0.378641	0.275246	5.332394	0.050446	
0.576923	0.177097	0.836027	0.319625	0.257734	5.821302	0.041412	
0.593750	0.150340	0.559557	0.240368	0.216832	5.769100	0.035314	
0.610577	0.136731	0.304799	0.177423	0.171071	5.004613	0.034483	
0.622068	0.130292	0.177374	0.146698	0.144648	4.440739	0.034883	
0.627932	0.129085	0.133073	0.135127	0.133984	4.151792	0.035742	
0.639423	0.127157	0.067574	0.118890	0.118600	3.730815	0.037142	
0.656250	0.125455	0.022380	0.106870	0.106839	3.406445	0.038350	
0.673077	0.125273	0.007005	0.102139	0.102136	3.261225	0.039137	
0.684568	0.124983	0.001574	0.100762	0.100762	3.224832	0.039266	
0.690432	0.124924	0.001256	0.100465	0.100465	3.216837	0.039297	
0.701923	0.125067	0.000412	0.100047	0.100047	3.199775	0.039447	
0.718750	0.124963	-0.000334	0.099933	0.099933	3.198804	0.039420	
0.735577	0.125021	0.000192	0.100016	0.100016	3.199969	0.039431	
0.747068	0.125009	0.000002	0.100016	0.100016	3.200301	0.039425	
0.752932	0.124964	-0.000117	0.100014	0.100014	3.201382	0.039404	
0.764423	0.125012	0.000060	0.099981	0.099981	3.199092	0.039433	
0.781250	0.124994	-0.000071	0.099987	0.099987	3.199748	0.039424	
0.798077	0.125003	0.000068	0.100010	0.100010	3.200268	0.039423	
0.809568	0.125006	0.000024	0.099993	0.099993	3.199639	0.039428	
0.815432	0.124991	-0.000106	0.099979	0.099979	3.199555	0.039424	
0.826923	0.125001	0.000015	0.099994	0.099994	3.199780	0.039426	
0.843750	0.125000	0.000004	0.099999	0.099999	3.199969	0.039424	
0.860577	0.124999	-0.000004	0.099993	0.099993	3.199784	0.039425	
0.872068	0.125001	0.000003	0.099991	0.099991	3.199693	0.039426	
0.877932	0.124999	-0.000013	0.099995	0.099995	3.199884	0.039424	
0.889423	0.125000	0.000010	0.099998	0.099998	3.199935	0.039424	
0.906250	0.125000	-0.000005	0.099993	0.099993	3.199776	0.039425	
0.923077	0.125000	-0.000000	0.099995	0.099995	3.199867	0.039425	
0.934568	0.125000	0.000010	0.099997	0.099997	3.199899	0.039425	
0.940432	0.125000	-0.000003	0.099994	0.099994	3.199805	0.039425	
0.951923	0.125000	-0.000003	0.099994	0.099994	3.199821	0.039425	
0.968750	0.125000	0.000002	0.099995	0.099995	3.199858	0.039425	
0.985577	0.125000	-0.000001	0.099995	0.099995	3.199833	0.039425	
0.997068	0.125000	-0.000001	0.099994	0.099994	3.199830	0.039425	
