TITLE = "DG1DFDX32-P3RK4w10iv80"
VARIABLES = "x" "Density" "Velocity in x" "Energy" "Pressure" "Temperature" "Fugacity"
ZONE T = "Final Time 0.10"
I = 128, J = 1, K = 1, F = POINT

0.002170	0.837319	0.001021	0.911143	0.911142	3.991365	0.282384	
0.010313	0.837277	0.001250	0.910691	0.910690	3.989534	0.282444	
0.020937	0.837208	0.001628	0.909970	0.909969	3.986718	0.282535	
0.029080	0.837136	0.002004	0.909280	0.909278	3.983879	0.282625	
0.033420	0.837092	0.002233	0.908860	0.908858	3.982034	0.282686	
0.041563	0.837001	0.002714	0.907982	0.907979	3.978661	0.282792	
0.052187	0.836846	0.003501	0.906588	0.906583	3.972906	0.282973	
0.060330	0.836691	0.004265	0.905275	0.905267	3.967866	0.283124	
0.064670	0.836600	0.004719	0.904493	0.904484	3.964872	0.283214	
0.072813	0.836404	0.005682	0.902858	0.902845	3.958400	0.283411	
0.083437	0.836076	0.007238	0.900294	0.900272	3.948215	0.283713	
0.091580	0.835758	0.008711	0.897931	0.897900	3.938862	0.283985	
0.095920	0.835576	0.009569	0.896552	0.896514	3.933627	0.284136	
0.104063	0.835177	0.011397	0.893675	0.893620	3.922502	0.284453	
0.114687	0.834520	0.014303	0.889245	0.889159	3.905522	0.284921	
0.122830	0.833906	0.016971	0.885272	0.885152	3.890418	0.285329	
0.127170	0.833557	0.018504	0.882992	0.882849	3.881641	0.285571	
0.135313	0.832789	0.021766	0.878272	0.878074	3.863501	0.286054	
0.145937	0.831559	0.026834	0.871174	0.870875	3.837114	0.286719	
0.154080	0.830454	0.031341	0.865001	0.864593	3.813752	0.287308	
0.158420	0.829825	0.033907	0.861516	0.861039	3.800601	0.287640	
0.166563	0.828449	0.039326	0.854382	0.853741	3.774028	0.288275	
0.177187	0.826313	0.047526	0.843954	0.843020	3.735530	0.289151	
0.185330	0.824462	0.054587	0.835180	0.833952	3.702915	0.289891	
0.189670	0.823402	0.058587	0.830296	0.828883	3.684708	0.290299	
0.197813	0.821115	0.066936	0.820454	0.818615	3.648353	0.291054	
0.208437	0.817688	0.079210	0.806507	0.803942	3.596987	0.292066	
0.216580	0.814817	0.089459	0.795171	0.791911	3.554836	0.292897	
0.220920	0.813147	0.095273	0.788934	0.785244	3.531736	0.293320	
0.229063	0.809628	0.107210	0.776597	0.771944	3.486505	0.294060	
0.239687	0.804544	0.124246	0.759682	0.753472	3.423725	0.295041	
0.247830	0.800398	0.138093	0.746398	0.738767	3.373509	0.295827	
0.252170	0.797928	0.146015	0.739150	0.730644	3.346433	0.296159	
0.260313	0.792901	0.161927	0.725124	0.714729	3.293728	0.296733	
0.270937	0.785905	0.183966	0.706556	0.693257	3.222707	0.297458	
0.279080	0.780279	0.201529	0.692444	0.676599	3.167330	0.297987	
0.283420	0.776834	0.211734	0.684779	0.667365	3.138094	0.298062	
0.291563	0.770145	0.231623	0.670347	0.649688	3.081156	0.298244	
0.302187	0.761161	0.258363	0.651938	0.626534	3.006386	0.298440	
0.310330	0.753892	0.279517	0.638358	0.608907	2.949985	0.298395	
0.314670	0.749354	0.292020	0.631003	0.599052	2.920004	0.298062	
0.322813	0.741046	0.315421	0.617629	0.580766	2.863122	0.297594	
0.333437	0.730191	0.346037	0.601242	0.557525	2.789780	0.296960	
0.341580	0.721124	0.370545	0.589455	0.539949	2.736483	0.295948	
0.345920	0.715501	0.385120	0.583115	0.530054	2.708280	0.295011	
0.354063	0.705867	0.411039	0.572087	0.512458	2.654911	0.293742	
0.364687	0.693393	0.444327	0.559156	0.490709	2.589252	0.291885	
0.372830	0.682307	0.472025	0.550034	0.474022	2.543624	0.289377	
0.377170	0.675873	0.487997	0.545237	0.464761	2.518549	0.287821	
0.385313	0.665458	0.514891	0.537342	0.449132	2.473483	0.285601	
0.395937	0.651505	0.549683	0.528525	0.430098	2.421670	0.282021	
0.404080	0.638238	0.580450	0.522405	0.414886	2.387479	0.277550	
0.408420	0.631655	0.596368	0.519376	0.407050	2.367996	0.275496	
0.416563	0.620982	0.622493	0.514700	0.394386	2.335866	0.272188	
0.427187	0.605445	0.658127	0.509778	0.378659	2.304099	0.266312	
0.435330	0.589948	0.691641	0.506458	0.365352	2.285754	0.259530	
0.439670	0.584169	0.705302	0.505026	0.359728	2.274030	0.257325	
0.447813	0.573764	0.728932	0.502973	0.350541	2.259017	0.252945	
0.458437	0.555593	0.766380	0.501014	0.337854	2.253936	0.243942	
0.466580	0.538518	0.801186	0.499814	0.326977	2.255957	0.235136	
0.470920	0.535508	0.808357	0.499436	0.324474	2.252256	0.233837	
0.479063	0.524066	0.830792	0.498959	0.318100	2.260133	0.227614	
0.489687	0.501933	0.872191	0.498589	0.307674	2.290576	0.214941	
0.497830	0.487135	0.900095	0.498420	0.301088	2.315176	0.206453	
0.502170	0.485200	0.903122	0.498378	0.300507	2.320903	0.205229	
0.510313	0.470202	0.928356	0.498208	0.295587	2.361944	0.196076	
0.520937	0.447316	0.967397	0.497822	0.288511	2.432894	0.182270	
0.529080	0.434901	0.986698	0.497327	0.285623	2.483055	0.174597	
0.533420	0.431322	0.990121	0.496932	0.285512	2.504394	0.172165	
0.541563	0.412995	1.017391	0.495688	0.281946	2.591574	0.160942	
0.552187	0.392802	1.046003	0.493636	0.278749	2.703706	0.148738	
0.560330	0.380686	1.059206	0.491490	0.277941	2.788196	0.141291	
0.564670	0.373968	1.065506	0.489998	0.277715	2.839578	0.137182	
0.572813	0.356664	1.086151	0.486553	0.276170	2.969924	0.127123	
0.583437	0.338695	1.102762	0.481452	0.275511	3.130120	0.116821	
0.591580	0.326230	1.110132	0.476653	0.275631	3.257937	0.109798	
0.595920	0.318738	1.114317	0.473574	0.275685	3.339716	0.105674	
0.604063	0.303867	1.123868	0.467395	0.275491	3.509608	0.097774	
0.614687	0.288054	1.126677	0.458628	0.275800	3.715592	0.089603	
0.622830	0.276465	1.124417	0.450914	0.276145	3.883196	0.083803	
0.627170	0.269508	1.123382	0.446281	0.276223	3.989480	0.080419	
0.635313	0.257623	1.119307	0.437600	0.276219	4.180891	0.074815	
0.645937	0.244476	1.105799	0.425575	0.276103	4.412695	0.068834	
0.654080	0.234624	1.091598	0.415524	0.275737	4.598139	0.064529	
0.658420	0.228991	1.083519	0.409817	0.275398	4.710016	0.062127	
0.666563	0.220070	1.065492	0.399417	0.274497	4.889510	0.058457	
0.677187	0.209713	1.035860	0.385256	0.272745	5.105782	0.054364	
0.685330	0.201997	1.009720	0.373891	0.270919	5.271261	0.051433	
0.689670	0.197840	0.994993	0.367707	0.269775	5.362445	0.049893	
0.697813	0.191367	0.965646	0.356478	0.267255	5.495904	0.047597	
0.708437	0.183552	0.922936	0.341397	0.263221	5.648030	0.044953	
0.716580	0.177822	0.887644	0.329644	0.259590	5.753257	0.043095	
0.720920	0.174898	0.868365	0.323429	0.257488	5.804139	0.042174	
0.729063	0.170237	0.831561	0.312027	0.253169	5.864654	0.040800	
0.739687	0.164450	0.780441	0.296889	0.246807	5.920452	0.039183	
0.747830	0.160282	0.739829	0.285316	0.241451	5.945633	0.038081	
0.752170	0.158237	0.718241	0.279282	0.238467	5.950180	0.037567	
0.760313	0.154811	0.677440	0.268061	0.232538	5.930066	0.036797	
0.770937	0.150509	0.622212	0.253334	0.224199	5.884348	0.035891	
0.779080	0.147457	0.579545	0.242223	0.217460	5.828669	0.035317	
0.783420	0.145986	0.557274	0.236463	0.213794	5.785184	0.035090	
0.791563	0.143400	0.515162	0.225684	0.206655	5.696314	0.034727	
0.802187	0.140177	0.459660	0.211792	0.196983	5.555826	0.034365	
0.810330	0.137932	0.418022	0.201504	0.189453	5.430489	0.034199	
0.814670	0.136858	0.396655	0.196221	0.185455	5.355502	0.034169	
0.822813	0.134925	0.356658	0.186437	0.177855	5.209740	0.034153	
0.833437	0.132597	0.306245	0.174277	0.168059	5.009834	0.034229	
0.841580	0.131031	0.270149	0.165602	0.160821	4.850300	0.034380	
0.845920	0.130292	0.252152	0.161252	0.157110	4.767135	0.034486	
0.854063	0.128975	0.219462	0.153429	0.150324	4.607960	0.034727	
0.864687	0.127478	0.180896	0.144235	0.142150	4.407557	0.035105	
0.872830	0.126522	0.154974	0.138016	0.136496	4.262579	0.035437	
0.877170	0.126081	0.142504	0.134994	0.133713	4.191019	0.035619	
0.885313	0.125313	0.120678	0.129745	0.128832	4.062411	0.035966	
0.895937	0.124488	0.096526	0.123893	0.123313	3.912434	0.036419	
0.904080	0.123985	0.081133	0.120105	0.119697	3.812750	0.036751	
0.908420	0.123756	0.073886	0.118300	0.117962	3.765396	0.036918	
0.916563	0.123362	0.061532	0.115240	0.115006	3.682512	0.037220	
0.927187	0.122957	0.048422	0.111936	0.111791	3.589908	0.037582	
0.935330	0.122716	0.040296	0.109842	0.109743	3.531426	0.037824	
0.939670	0.122604	0.036477	0.108849	0.108767	3.503184	0.037945	
0.947813	0.122416	0.030085	0.107190	0.107134	3.454817	0.038156	
0.958437	0.122227	0.023470	0.105427	0.105394	3.404696	0.038383	
0.966580	0.122115	0.019411	0.104319	0.104296	3.369994	0.038549	
0.970920	0.122062	0.017488	0.103790	0.103771	3.354268	0.038624	
0.979063	0.121975	0.014338	0.102921	0.102908	3.329145	0.038745	
0.989687	0.121889	0.011138	0.102005	0.101998	3.301861	0.038881	
0.997830	0.121837	0.009182	0.101429	0.101424	3.284148	0.038972	
