TITLE = "DG1DMBX64-P4RK4w1000iv80"
VARIABLES = "x" "Density" "Velocity in x" "Energy" "Pressure" "Temperature" "Fugacity"
ZONE T = "Final Time 0.10"
I = 320, J = 1, K = 1, F = POINT

0.000733	1.000000	-0.000000	1.000000	1.000000	4.000000	0.282095	
0.003606	1.000000	-0.000000	1.000000	1.000000	4.000000	0.282095	
0.007813	1.000000	-0.000000	1.000000	1.000000	4.000000	0.282095	
0.012019	1.000000	-0.000000	1.000000	1.000000	4.000000	0.282095	
0.014892	1.000000	-0.000000	1.000000	1.000000	4.000000	0.282095	
0.016358	1.000000	-0.000000	1.000000	1.000000	4.000000	0.282095	
0.019231	1.000000	-0.000000	1.000000	1.000000	4.000000	0.282095	
0.023438	1.000000	-0.000000	1.000000	1.000000	4.000000	0.282095	
0.027644	1.000000	-0.000000	1.000000	1.000000	4.000000	0.282095	
0.030517	1.000000	-0.000000	1.000000	1.000000	4.000000	0.282095	
0.031983	1.000000	-0.000000	1.000000	1.000000	4.000000	0.282095	
0.034856	1.000000	-0.000000	1.000000	1.000000	4.000000	0.282095	
0.039063	1.000000	-0.000000	1.000000	1.000000	4.000000	0.282095	
0.043269	1.000000	-0.000000	1.000000	1.000000	4.000000	0.282095	
0.046142	1.000000	-0.000000	1.000000	1.000000	4.000000	0.282095	
0.047608	1.000000	-0.000000	1.000000	1.000000	4.000000	0.282095	
0.050481	1.000000	-0.000000	1.000000	1.000000	4.000000	0.282095	
0.054688	1.000000	-0.000000	1.000000	1.000000	4.000000	0.282095	
0.058894	1.000000	-0.000000	1.000000	1.000000	4.000000	0.282095	
0.061767	1.000000	-0.000000	1.000000	1.000000	4.000000	0.282095	
0.063233	1.000000	-0.000000	1.000000	1.000000	4.000000	0.282095	
0.066106	1.000000	-0.000000	1.000000	1.000000	4.000000	0.282095	
0.070313	1.000000	-0.000000	1.000000	1.000000	4.000000	0.282095	
0.074519	1.000000	-0.000000	1.000000	1.000000	4.000000	0.282095	
0.077392	1.000000	-0.000000	1.000000	1.000000	4.000000	0.282095	
0.078858	1.000000	-0.000000	1.000000	1.000000	4.000000	0.282095	
0.081731	1.000000	-0.000000	1.000000	1.000000	4.000000	0.282095	
0.085938	1.000000	-0.000000	1.000000	1.000000	4.000000	0.282095	
0.090144	1.000000	-0.000000	1.000000	1.000000	4.000000	0.282095	
0.093017	1.000000	-0.000000	1.000000	1.000000	4.000000	0.282095	
0.094483	1.000000	-0.000000	1.000000	1.000000	4.000000	0.282095	
0.097356	1.000000	-0.000000	1.000000	1.000000	4.000000	0.282095	
0.101563	1.000000	-0.000000	1.000000	1.000000	4.000000	0.282095	
0.105769	1.000000	-0.000000	1.000000	1.000000	4.000000	0.282095	
0.108642	1.000000	-0.000000	1.000000	1.000000	4.000000	0.282095	
0.110108	1.000000	-0.000000	1.000000	1.000000	4.000000	0.282095	
0.112981	1.000000	-0.000000	1.000000	1.000000	4.000000	0.282095	
0.117188	1.000000	-0.000000	1.000000	1.000000	4.000000	0.282095	
0.121394	1.000000	-0.000000	1.000000	1.000000	4.000000	0.282095	
0.124267	1.000000	-0.000000	1.000000	1.000000	4.000000	0.282095	
0.125733	1.000000	-0.000000	1.000000	1.000000	4.000000	0.282095	
0.128606	1.000000	0.000000	1.000000	1.000000	4.000000	0.282095	
0.132813	1.000000	0.000000	1.000000	1.000000	4.000000	0.282095	
0.137019	1.000000	0.000000	1.000000	1.000000	4.000000	0.282095	
0.139892	1.000000	0.000000	1.000000	1.000000	4.000000	0.282095	
0.141358	1.000000	0.000000	1.000000	1.000000	4.000000	0.282095	
0.144231	1.000000	0.000000	1.000000	1.000000	4.000000	0.282095	
0.148438	1.000000	0.000000	1.000000	1.000000	4.000000	0.282095	
0.152644	1.000000	0.000000	1.000000	1.000000	4.000000	0.282095	
0.155517	1.000000	0.000000	1.000000	1.000000	4.000000	0.282095	
0.156983	1.000000	0.000000	1.000000	1.000000	3.999999	0.282095	
0.159856	1.000000	0.000000	1.000000	1.000000	3.999999	0.282095	
0.164063	1.000000	0.000001	0.999999	0.999999	3.999997	0.282095	
0.168269	0.999999	0.000002	0.999998	0.999998	3.999993	0.282095	
0.171142	0.999999	0.000003	0.999996	0.999996	3.999987	0.282095	
0.172608	0.999999	0.000004	0.999994	0.999994	3.999983	0.282095	
0.175481	0.999997	0.000008	0.999989	0.999989	3.999968	0.282095	
0.179688	0.999994	0.000018	0.999975	0.999975	3.999926	0.282096	
0.183894	0.999986	0.000040	0.999944	0.999944	3.999833	0.282097	
0.186767	0.999975	0.000068	0.999905	0.999905	3.999718	0.282098	
0.188233	0.999968	0.000089	0.999876	0.999876	3.999634	0.282099	
0.191106	0.999947	0.000148	0.999796	0.999796	3.999399	0.282101	
0.195313	0.999892	0.000297	0.999593	0.999593	3.998803	0.282106	
0.199519	0.999790	0.000572	0.999222	0.999221	3.997725	0.282116	
0.202392	0.999679	0.000871	0.998821	0.998821	3.996566	0.282125	
0.203858	0.999604	0.001071	0.998555	0.998554	3.995799	0.282131	
0.206731	0.999414	0.001577	0.997882	0.997881	3.993864	0.282146	
0.210938	0.998998	0.002677	0.996435	0.996431	3.989722	0.282175	
0.215144	0.998364	0.004340	0.994268	0.994258	3.983549	0.282214	
0.218017	0.997771	0.005887	0.992270	0.992253	3.977879	0.282247	
0.219483	0.997409	0.006826	0.991066	0.991042	3.974466	0.282266	
0.222356	0.996572	0.008990	0.988306	0.988266	3.966660	0.282307	
0.226563	0.995005	0.013017	0.983228	0.983144	3.952318	0.282374	
0.230769	0.992987	0.018168	0.976824	0.976661	3.934235	0.282448	
0.233642	0.991329	0.022375	0.971662	0.971414	3.919642	0.282501	
0.235108	0.990393	0.024743	0.968781	0.968478	3.911486	0.282528	
0.237981	0.988381	0.029821	0.962658	0.962219	3.894119	0.282582	
0.242188	0.985008	0.038295	0.952598	0.951876	3.865455	0.282660	
0.246394	0.981138	0.047971	0.941337	0.940208	3.833131	0.282734	
0.249267	0.978222	0.055237	0.933028	0.931536	3.809097	0.282782	
0.250733	0.976652	0.059143	0.928614	0.926906	3.796257	0.282805	
0.253606	0.973421	0.067164	0.919654	0.917459	3.770038	0.282848	
0.257813	0.968343	0.079740	0.905892	0.902813	3.729311	0.282905	
0.262019	0.962886	0.093217	0.891513	0.887330	3.686125	0.282953	
0.264892	0.958963	0.102889	0.881423	0.876347	3.655395	0.282983	
0.266358	0.956903	0.107961	0.876207	0.870630	3.639365	0.282996	
0.269231	0.952762	0.118147	0.865882	0.859232	3.607331	0.283020	
0.273438	0.946468	0.133610	0.850592	0.842143	3.559099	0.283049	
0.277644	0.939929	0.149653	0.835203	0.824678	3.509534	0.283071	
0.280517	0.935337	0.160905	0.824693	0.812585	3.475044	0.283083	
0.281983	0.932958	0.166732	0.819340	0.806372	3.457269	0.283088	
0.284856	0.928231	0.178304	0.808888	0.794133	3.422135	0.283095	
0.289063	0.921166	0.195588	0.793717	0.776098	3.370066	0.283103	
0.293269	0.913950	0.213228	0.778764	0.757987	3.317411	0.283105	
0.296142	0.908945	0.225457	0.768706	0.745605	3.281191	0.283104	
0.297608	0.906369	0.231749	0.763628	0.739289	3.262642	0.283103	
0.300481	0.901280	0.244174	0.753792	0.726925	3.226188	0.283100	
0.304688	0.893741	0.262575	0.739684	0.708874	3.172615	0.283092	
0.308894	0.886109	0.281196	0.725955	0.690923	3.118905	0.283081	
0.311767	0.880850	0.294024	0.716812	0.678737	3.082193	0.283072	
0.313233	0.878153	0.300601	0.712222	0.672546	3.063459	0.283067	
0.316106	0.872842	0.313550	0.703377	0.660470	3.026758	0.283056	
0.320313	0.865011	0.332639	0.690794	0.642937	2.973081	0.283037	
0.324519	0.857124	0.351863	0.678661	0.625602	2.919540	0.283016	
0.327392	0.851709	0.365059	0.670639	0.613887	2.883083	0.283001	
0.328858	0.848937	0.371812	0.666629	0.607949	2.864518	0.282992	
0.331731	0.843491	0.385081	0.658935	0.596395	2.828225	0.282975	
0.335938	0.835483	0.404587	0.648061	0.579681	2.775309	0.282948	
0.340144	0.827442	0.424170	0.637657	0.563221	2.722706	0.282919	
0.343017	0.821936	0.437580	0.630823	0.552132	2.686985	0.282898	
0.344483	0.819121	0.444434	0.627419	0.546522	2.668824	0.282887	
0.347356	0.813598	0.457882	0.620914	0.535627	2.633373	0.282865	
0.351563	0.805495	0.477610	0.611780	0.519909	2.581811	0.282830	
0.355769	0.797378	0.497368	0.603107	0.504481	2.530699	0.282793	
0.358642	0.791831	0.510871	0.597447	0.494117	2.496073	0.282767	
0.360108	0.788999	0.517763	0.594640	0.488883	2.478495	0.282753	
0.362981	0.783450	0.531269	0.589297	0.478734	2.444234	0.282725	
0.367188	0.775326	0.551039	0.581846	0.464135	2.394529	0.282683	
0.371394	0.767211	0.570783	0.574834	0.449857	2.345417	0.282638	
0.374267	0.761679	0.584242	0.570292	0.440297	2.312243	0.282605	
0.375733	0.758860	0.591099	0.568051	0.435478	2.295435	0.282588	
0.378606	0.753345	0.604513	0.563806	0.426156	2.262742	0.282554	
0.382813	0.745299	0.624082	0.557940	0.412801	2.215490	0.282501	
0.387019	0.737298	0.643534	0.552479	0.399808	2.169042	0.282445	
0.389892	0.731869	0.656732	0.548979	0.391152	2.137827	0.282405	
0.391358	0.729111	0.663435	0.547264	0.386806	2.122068	0.282384	
0.394231	0.723736	0.676496	0.544038	0.378430	2.091538	0.282340	
0.398438	0.715948	0.695415	0.539637	0.366520	2.047748	0.282272	
0.402644	0.708283	0.714022	0.535611	0.355060	2.005183	0.282199	
0.405517	0.703138	0.726506	0.533073	0.347511	1.976915	0.282145	
0.406983	0.700546	0.732794	0.531844	0.343752	1.962766	0.282116	
0.409856	0.695539	0.744930	0.529561	0.336577	1.935630	0.282056	
0.414063	0.688416	0.762178	0.526519	0.326563	1.897476	0.281960	
0.418269	0.681602	0.778652	0.523829	0.317202	1.861509	0.281853	
0.421142	0.677166	0.789356	0.522193	0.311227	1.838411	0.281773	
0.422608	0.674982	0.794620	0.521420	0.308321	1.827137	0.281729	
0.425481	0.670876	0.804498	0.520025	0.302924	1.806144	0.281638	
0.429688	0.665341	0.817769	0.518268	0.295796	1.778313	0.281491	
0.433894	0.660464	0.829399	0.516839	0.289671	1.754352	0.281330	
0.436767	0.657559	0.836285	0.516043	0.286104	1.740402	0.281213	
0.438233	0.656217	0.839450	0.515691	0.284480	1.734063	0.281151	
0.441106	0.653872	0.844952	0.515098	0.281684	1.723175	0.281030	
0.445313	0.651110	0.851363	0.514444	0.278475	1.710772	0.280856	
0.449519	0.649095	0.855957	0.514002	0.276218	1.702172	0.280693	
0.452392	0.648092	0.858195	0.513796	0.275136	1.698130	0.280593	
0.453858	0.647680	0.859098	0.513714	0.274705	1.696544	0.280545	
0.456731	0.647038	0.860475	0.513592	0.274053	1.694203	0.280461	
0.460938	0.646405	0.861762	0.513480	0.273459	1.692184	0.280353	
0.465144	0.646022	0.862457	0.513417	0.273151	1.691276	0.280263	
0.468017	0.645852	0.862719	0.513391	0.273042	1.691050	0.280207	
0.469483	0.645784	0.862808	0.513381	0.273008	1.691018	0.280181	
0.472356	0.645675	0.862920	0.513365	0.272970	1.691068	0.280129	
0.476563	0.645554	0.862988	0.513347	0.272960	1.691320	0.280056	
0.480769	0.645453	0.862997	0.513332	0.272977	1.691691	0.279981	
0.483642	0.645388	0.862986	0.513321	0.272997	1.691985	0.279929	
0.485108	0.645354	0.862978	0.513315	0.273008	1.692143	0.279901	
0.487981	0.645286	0.862960	0.513303	0.273031	1.692466	0.279845	
0.492188	0.645179	0.862931	0.513283	0.273066	1.692965	0.279757	
0.496394	0.645060	0.862904	0.513258	0.273101	1.693493	0.279662	
0.499267	0.644971	0.862888	0.513239	0.273124	1.693870	0.279592	
0.500733	0.644923	0.862881	0.513229	0.273136	1.694068	0.279555	
0.503606	0.644822	0.862868	0.513206	0.273158	1.694469	0.279478	
0.507813	0.644658	0.862854	0.513168	0.273189	1.695091	0.279356	
0.512019	0.644472	0.862845	0.513123	0.273218	1.695763	0.279220	
0.514892	0.644330	0.862842	0.513088	0.273237	1.696257	0.279118	
0.516358	0.644253	0.862841	0.513069	0.273247	1.696522	0.279063	
0.519231	0.644089	0.862842	0.513027	0.273266	1.697068	0.278947	
0.523438	0.643816	0.862850	0.512956	0.273292	1.697952	0.278756	
0.527644	0.643491	0.862866	0.512869	0.273318	1.698968	0.278532	
0.530517	0.643226	0.862886	0.512798	0.273334	1.699770	0.278351	
0.531983	0.643073	0.862899	0.512757	0.273342	1.700226	0.278248	
0.534856	0.642728	0.862935	0.512664	0.273358	1.701235	0.278016	
0.539063	0.642048	0.863026	0.512481	0.273378	1.703161	0.277565	
0.543269	0.641014	0.863199	0.512209	0.273395	1.706015	0.276886	
0.546142	0.639935	0.863403	0.511927	0.273402	1.708938	0.276183	
0.547608	0.639209	0.863549	0.511738	0.273404	1.710891	0.275713	
0.550481	0.637266	0.863947	0.511233	0.273404	1.716103	0.274457	
0.554688	0.632586	0.864915	0.510003	0.273391	1.728720	0.271445	
0.558894	0.624259	0.866603	0.507766	0.273356	1.751557	0.266120	
0.561767	0.615431	0.868313	0.505332	0.273324	1.776473	0.260511	
0.563233	0.609651	0.869404	0.503710	0.273304	1.793182	0.256859	
0.566106	0.595433	0.871994	0.499636	0.273261	1.835709	0.247946	
0.570313	0.566815	0.876946	0.491149	0.273199	1.927957	0.230313	
0.574519	0.528982	0.883105	0.479430	0.273160	2.065554	0.207658	
0.577392	0.498800	0.887825	0.469737	0.273152	2.190470	0.190144	
0.578858	0.482469	0.890289	0.464366	0.273160	2.264685	0.180880	
0.581731	0.449464	0.895126	0.453258	0.273192	2.431267	0.162631	
0.585938	0.401191	0.901679	0.436371	0.273282	2.724706	0.137125	
0.590144	0.356144	0.906908	0.419877	0.273415	3.070843	0.114663	
0.593017	0.328453	0.909366	0.409330	0.273523	3.331047	0.101533	
0.594483	0.315435	0.910240	0.404254	0.273579	3.469222	0.095547	
0.597356	0.292187	0.911126	0.394969	0.273689	3.746762	0.085164	
0.601563	0.263460	0.910512	0.383049	0.273841	4.157600	0.072899	
0.605769	0.240520	0.907872	0.373086	0.273964	4.556202	0.063573	
0.608642	0.227774	0.905134	0.367334	0.274030	4.812301	0.058581	
0.610108	0.222071	0.903521	0.364700	0.274056	4.936357	0.056392	
0.612981	0.212305	0.900038	0.360085	0.274094	5.164168	0.052709	
0.617188	0.200906	0.894521	0.354501	0.274122	5.457726	0.048519	
0.621394	0.192319	0.888957	0.350111	0.274121	5.701389	0.045442	
0.624267	0.187754	0.885344	0.347694	0.274109	5.839746	0.043835	
0.625733	0.185767	0.883592	0.346618	0.274101	5.902039	0.043141	
0.628606	0.182448	0.880384	0.344786	0.274080	6.008943	0.041992	
0.632813	0.178738	0.876290	0.342671	0.274046	6.132904	0.040720	
0.637019	0.176093	0.872947	0.341106	0.274011	6.224241	0.039822	
0.639892	0.174755	0.871084	0.340290	0.273989	6.271376	0.039371	
0.641358	0.174192	0.870254	0.339940	0.273979	6.291427	0.039181	
0.644231	0.173281	0.868850	0.339366	0.273961	6.324071	0.038876	
0.648438	0.172319	0.867259	0.338744	0.273940	6.358896	0.038554	
0.652644	0.171682	0.866124	0.338322	0.273927	6.382176	0.038341	
0.655517	0.171382	0.865557	0.338120	0.273921	6.393254	0.038241	
0.656983	0.171261	0.865321	0.338038	0.273920	6.397737	0.038201	
0.659856	0.171074	0.864948	0.337912	0.273919	6.404698	0.038138	
0.664063	0.170892	0.864573	0.337791	0.273922	6.411559	0.038077	
0.668269	0.170786	0.864350	0.337725	0.273928	6.415697	0.038041	
0.671142	0.170742	0.864261	0.337700	0.273933	6.417487	0.038026	
0.672608	0.170726	0.864231	0.337693	0.273936	6.418165	0.038021	
0.675481	0.170704	0.864195	0.337687	0.273944	6.419154	0.038013	
0.679688	0.170689	0.864182	0.337693	0.273957	6.420031	0.038007	
0.683894	0.170686	0.864202	0.337710	0.273972	6.420495	0.038005	
0.686767	0.170689	0.864227	0.337726	0.273984	6.420675	0.038005	
0.688233	0.170691	0.864243	0.337736	0.273990	6.420737	0.038005	
0.691106	0.170696	0.864280	0.337756	0.274002	6.420817	0.038006	
0.695313	0.170706	0.864347	0.337787	0.274020	6.420869	0.038008	
0.699519	0.170717	0.864426	0.337820	0.274038	6.420886	0.038010	
0.702392	0.170724	0.864485	0.337844	0.274051	6.420900	0.038012	
0.703858	0.170728	0.864515	0.337857	0.274057	6.420914	0.038013	
0.706731	0.170736	0.864575	0.337883	0.274071	6.420959	0.038014	
0.710938	0.170747	0.864661	0.337923	0.274095	6.421073	0.038017	
0.715144	0.170758	0.864746	0.337965	0.274120	6.421231	0.038019	
0.718017	0.170766	0.864808	0.337995	0.274137	6.421347	0.038020	
0.719483	0.170770	0.864841	0.338010	0.274146	6.421405	0.038021	
0.722356	0.170778	0.864912	0.338040	0.274163	6.421518	0.038022	
0.726563	0.170788	0.865025	0.338084	0.274187	6.421687	0.038024	
0.730769	0.170798	0.865146	0.338131	0.274212	6.421887	0.038026	
0.733642	0.170805	0.865229	0.338165	0.274231	6.422064	0.038027	
0.735108	0.170809	0.865271	0.338183	0.274241	6.422171	0.038027	
0.737981	0.170817	0.865349	0.338220	0.274264	6.422420	0.038028	
0.742188	0.170828	0.865461	0.338278	0.274300	6.422834	0.038030	
0.746394	0.170840	0.865583	0.338337	0.274337	6.423243	0.038031	
0.749267	0.170848	0.865681	0.338377	0.274360	6.423494	0.038032	
0.750733	0.170852	0.865734	0.338398	0.274372	6.423621	0.038032	
0.753606	0.170859	0.865843	0.338440	0.274395	6.423882	0.038033	
0.757813	0.170870	0.866013	0.338504	0.274429	6.424289	0.038035	
0.762019	0.170881	0.866186	0.338571	0.274467	6.424764	0.038036	
0.764892	0.170889	0.866296	0.338622	0.274498	6.425186	0.038036	
0.766358	0.170893	0.866344	0.338649	0.274517	6.425450	0.038036	
0.769231	0.170903	0.866431	0.338703	0.274554	6.425976	0.038037	
0.773438	0.170916	0.866572	0.338778	0.274604	6.426652	0.038038	
0.777644	0.170925	0.866740	0.338844	0.274641	6.427158	0.038038	
0.780517	0.170930	0.866854	0.338883	0.274662	6.427467	0.038038	
0.781983	0.170932	0.866901	0.338901	0.274672	6.427649	0.038038	
0.784856	0.170935	0.866958	0.338931	0.274693	6.428017	0.038038	
0.789063	0.170931	0.866980	0.338941	0.274700	6.428326	0.038036	
0.793269	0.170914	0.866840	0.338886	0.274673	6.428334	0.038032	
0.796142	0.170892	0.866500	0.338800	0.274645	6.428480	0.038027	
0.797608	0.170877	0.866187	0.338730	0.274627	6.428634	0.038023	
0.800481	0.170835	0.865459	0.338499	0.274520	6.427714	0.038017	
0.804688	0.170689	0.863738	0.337797	0.274126	6.423979	0.037995	
0.808894	0.170423	0.860226	0.336473	0.273417	6.417396	0.037955	
0.811767	0.170127	0.855643	0.334910	0.272633	6.410092	0.037911	
0.813233	0.169923	0.852982	0.333802	0.271986	6.402553	0.037888	
0.816106	0.169223	0.843985	0.330386	0.270117	6.384855	0.037784	
0.820313	0.167610	0.820326	0.321881	0.265486	6.335786	0.037569	
0.824519	0.164156	0.770828	0.304196	0.255427	6.223992	0.037123	
0.827392	0.159666	0.700898	0.280725	0.241507	6.050276	0.036623	
0.828858	0.156611	0.647892	0.264225	0.231355	5.909043	0.036349	
0.831731	0.146313	0.472092	0.211413	0.195109	5.334025	0.035742	
0.835938	0.131233	0.153334	0.132436	0.130894	3.989654	0.037068	
0.840144	0.125229	0.007032	0.101754	0.101751	3.250070	0.039191	
0.843017	0.125699	0.016700	0.102980	0.102962	3.276466	0.039179	
0.844483	0.125582	0.012501	0.102260	0.102250	3.256823	0.039261	
0.847356	0.124919	-0.000756	0.100015	0.100015	3.202542	0.039383	
0.851563	0.125022	0.000177	0.100005	0.100005	3.199595	0.039433	
0.855769	0.125029	0.000758	0.100138	0.100138	3.203667	0.039411	
0.858642	0.124953	-0.000790	0.099900	0.099900	3.197993	0.039422	
0.860108	0.125004	-0.000104	0.099962	0.099962	3.198677	0.039433	
0.862981	0.125009	0.000197	0.100032	0.100032	3.200794	0.039422	
0.867188	0.124998	-0.000032	0.099997	0.099997	3.199947	0.039424	
0.871394	0.125000	-0.000000	0.099999	0.099999	3.199951	0.039424	
0.874267	0.125002	0.000049	0.100008	0.100008	3.200216	0.039423	
0.875733	0.124999	-0.000016	0.099999	0.099999	3.199979	0.039424	
0.878606	0.125000	-0.000005	0.099999	0.099999	3.199969	0.039424	
0.882813	0.125000	0.000003	0.100001	0.100001	3.200013	0.039424	
0.887019	0.125000	-0.000001	0.100000	0.100000	3.199998	0.039424	
0.889892	0.125000	-0.000001	0.100000	0.100000	3.199993	0.039424	
0.891358	0.125000	0.000001	0.100000	0.100000	3.200005	0.039424	
0.894231	0.125000	0.000000	0.100000	0.100000	3.200001	0.039424	
0.898438	0.125000	-0.000000	0.100000	0.100000	3.200000	0.039424	
0.902644	0.125000	0.000000	0.100000	0.100000	3.200000	0.039424	
0.905517	0.125000	-0.000000	0.100000	0.100000	3.200000	0.039424	
0.906983	0.125000	-0.000000	0.100000	0.100000	3.200000	0.039424	
0.909856	0.125000	0.000000	0.100000	0.100000	3.200000	0.039424	
0.914063	0.125000	0.000000	0.100000	0.100000	3.200000	0.039424	
0.918269	0.125000	-0.000000	0.100000	0.100000	3.200000	0.039424	
0.921142	0.125000	0.000000	0.100000	0.100000	3.200000	0.039424	
0.922608	0.125000	0.000000	0.100000	0.100000	3.200000	0.039424	
0.925481	0.125000	-0.000000	0.100000	0.100000	3.200000	0.039424	
0.929688	0.125000	0.000000	0.100000	0.100000	3.200000	0.039424	
0.933894	0.125000	0.000000	0.100000	0.100000	3.200000	0.039424	
0.936767	0.125000	-0.000000	0.100000	0.100000	3.200000	0.039424	
0.938233	0.125000	0.000000	0.100000	0.100000	3.200000	0.039424	
0.941106	0.125000	0.000000	0.100000	0.100000	3.200000	0.039424	
0.945313	0.125000	0.000000	0.100000	0.100000	3.200000	0.039424	
0.949519	0.125000	0.000000	0.100000	0.100000	3.200000	0.039424	
0.952392	0.125000	0.000000	0.100000	0.100000	3.200000	0.039424	
0.953858	0.125000	0.000000	0.100000	0.100000	3.200000	0.039424	
0.956731	0.125000	0.000000	0.100000	0.100000	3.200000	0.039424	
0.960938	0.125000	0.000000	0.100000	0.100000	3.200000	0.039424	
0.965144	0.125000	0.000000	0.100000	0.100000	3.200000	0.039424	
0.968017	0.125000	0.000000	0.100000	0.100000	3.200000	0.039424	
0.969483	0.125000	0.000000	0.100000	0.100000	3.200000	0.039424	
0.972356	0.125000	0.000000	0.100000	0.100000	3.200000	0.039424	
0.976563	0.125000	0.000000	0.100000	0.100000	3.200000	0.039424	
0.980769	0.125000	0.000000	0.100000	0.100000	3.200000	0.039424	
0.983642	0.125000	0.000000	0.100000	0.100000	3.200000	0.039424	
0.985108	0.125000	0.000000	0.100000	0.100000	3.200000	0.039424	
0.987981	0.125000	0.000000	0.100000	0.100000	3.200000	0.039424	
0.992188	0.125000	0.000000	0.100000	0.100000	3.200000	0.039424	
0.996394	0.125000	0.000000	0.100000	0.100000	3.200000	0.039424	
0.999267	0.125000	0.000000	0.100000	0.100000	3.200000	0.039424	
