TITLE = "DG1DMBX32-P5RK5w1000iv80"
VARIABLES = "x" "Density" "Velocity in x" "Energy" "Pressure" "Temperature" "Fugacity"
ZONE T = "Final Time 0.10"
I = 192, J = 1, K = 1, F = POINT

0.001055	1.000000	-0.000000	1.000000	1.000000	4.000000	0.282095	
0.005294	1.000000	-0.000000	1.000000	1.000000	4.000000	0.282095	
0.011897	1.000000	-0.000000	1.000000	1.000000	4.000000	0.282095	
0.019353	1.000000	-0.000000	1.000000	1.000000	4.000000	0.282095	
0.025956	1.000000	-0.000000	1.000000	1.000000	4.000000	0.282095	
0.030195	1.000000	-0.000000	1.000000	1.000000	4.000000	0.282095	
0.032305	1.000000	-0.000000	1.000000	1.000000	4.000000	0.282095	
0.036544	1.000000	-0.000000	1.000000	1.000000	4.000000	0.282095	
0.043147	1.000000	-0.000000	1.000000	1.000000	4.000000	0.282095	
0.050603	1.000000	-0.000000	1.000000	1.000000	4.000000	0.282095	
0.057206	1.000000	-0.000000	1.000000	1.000000	4.000000	0.282095	
0.061445	1.000000	-0.000000	1.000000	1.000000	4.000000	0.282095	
0.063555	1.000000	-0.000000	1.000000	1.000000	4.000000	0.282095	
0.067794	1.000000	-0.000000	1.000000	1.000000	4.000000	0.282095	
0.074397	1.000000	-0.000000	1.000000	1.000000	4.000000	0.282095	
0.081853	1.000000	-0.000000	1.000000	1.000000	4.000000	0.282095	
0.088456	1.000000	-0.000000	1.000000	1.000000	4.000000	0.282095	
0.092695	1.000000	-0.000000	1.000000	1.000000	4.000000	0.282095	
0.094805	1.000000	-0.000000	1.000000	1.000000	4.000000	0.282095	
0.099044	1.000000	-0.000000	1.000000	1.000000	4.000000	0.282095	
0.105647	1.000000	-0.000000	1.000000	1.000000	4.000000	0.282095	
0.113103	1.000000	-0.000000	1.000000	1.000000	4.000000	0.282095	
0.119706	1.000000	0.000000	1.000000	1.000000	4.000000	0.282095	
0.123945	1.000000	-0.000000	1.000000	1.000000	4.000000	0.282095	
0.126055	1.000000	-0.000000	1.000000	1.000000	4.000000	0.282095	
0.130294	1.000000	-0.000000	1.000000	1.000000	4.000000	0.282095	
0.136897	1.000000	0.000000	1.000000	1.000000	4.000000	0.282095	
0.144353	1.000000	-0.000000	1.000000	1.000000	4.000000	0.282095	
0.150956	1.000000	0.000000	1.000000	1.000000	4.000000	0.282095	
0.155195	1.000000	0.000000	1.000000	1.000000	4.000000	0.282095	
0.157305	1.000000	0.000000	1.000000	1.000000	4.000000	0.282095	
0.161544	1.000000	-0.000000	1.000000	1.000000	4.000000	0.282095	
0.168147	1.000000	0.000000	1.000000	1.000000	4.000000	0.282095	
0.175603	1.000000	0.000000	1.000000	1.000000	4.000000	0.282095	
0.182206	1.000000	-0.000000	1.000000	1.000000	4.000000	0.282095	
0.186445	1.000000	-0.000000	1.000000	1.000000	4.000000	0.282095	
0.188555	1.000000	0.000000	1.000000	1.000000	4.000000	0.282095	
0.192794	1.000000	0.000000	1.000000	1.000000	4.000000	0.282095	
0.199397	1.000000	-0.000000	1.000000	1.000000	4.000000	0.282095	
0.206853	1.000000	-0.000000	1.000000	1.000000	4.000000	0.282095	
0.213456	1.000000	0.000000	1.000000	1.000000	4.000000	0.282095	
0.217695	1.000000	-0.000000	1.000000	1.000000	4.000000	0.282095	
0.219805	1.000000	-0.000000	1.000000	1.000000	4.000000	0.282095	
0.224044	1.000000	-0.000000	1.000000	1.000000	4.000000	0.282095	
0.230647	1.000000	0.000000	1.000000	1.000000	4.000000	0.282095	
0.238103	1.000000	0.000000	1.000000	1.000000	4.000000	0.282095	
0.244706	1.000000	0.000001	0.999999	0.999999	3.999997	0.282095	
0.248945	0.999999	0.000002	0.999997	0.999997	3.999991	0.282095	
0.251055	0.999999	0.000004	0.999995	0.999995	3.999984	0.282095	
0.255294	0.999997	0.000010	0.999986	0.999986	3.999957	0.282095	
0.261897	0.999983	0.000047	0.999933	0.999933	3.999797	0.282097	
0.269353	0.999919	0.000228	0.999680	0.999680	3.999044	0.282106	
0.275956	0.999718	0.000779	0.998924	0.998924	3.996823	0.282127	
0.280195	0.999426	0.001571	0.997855	0.997854	3.993707	0.282155	
0.282305	0.999202	0.002175	0.997047	0.997044	3.991362	0.282175	
0.286544	0.998526	0.003977	0.994658	0.994650	3.984475	0.282227	
0.293147	0.996605	0.009027	0.988100	0.988059	3.965699	0.282350	
0.300603	0.992632	0.019294	0.975148	0.974963	3.928801	0.282542	
0.307206	0.987119	0.033336	0.958034	0.957486	3.879921	0.282737	
0.311445	0.982524	0.044925	0.944338	0.943347	3.840505	0.282862	
0.313555	0.979932	0.051430	0.936803	0.935507	3.818661	0.282921	
0.317794	0.974142	0.065900	0.920410	0.918294	3.770680	0.283033	
0.324397	0.963691	0.091853	0.892193	0.888128	3.686362	0.283181	
0.331853	0.950093	0.125412	0.857795	0.850323	3.579957	0.283304	
0.338456	0.936768	0.158150	0.826351	0.814636	3.478497	0.283375	
0.342695	0.927697	0.180378	0.806130	0.791039	3.410765	0.283403	
0.344805	0.923052	0.191746	0.796130	0.779161	3.376458	0.283414	
0.349044	0.913494	0.215115	0.776281	0.755145	3.306624	0.283425	
0.355647	0.898083	0.252740	0.746257	0.717573	3.196023	0.283424	
0.363103	0.880064	0.296668	0.714094	0.675366	3.069623	0.283398	
0.369706	0.863683	0.336561	0.687455	0.638539	2.957283	0.283356	
0.373945	0.853000	0.362561	0.671351	0.615288	2.885289	0.283321	
0.376055	0.847639	0.375604	0.663636	0.603844	2.849533	0.283302	
0.380294	0.836800	0.401967	0.648759	0.581155	2.777985	0.283258	
0.386897	0.819756	0.443405	0.627255	0.546670	2.667476	0.283178	
0.394353	0.800344	0.490576	0.605439	0.509131	2.544563	0.283071	
0.400956	0.783080	0.532505	0.588289	0.477263	2.437876	0.282960	
0.405195	0.771998	0.559411	0.578336	0.457542	2.370688	0.282881	
0.407305	0.766488	0.572784	0.573683	0.447948	2.337664	0.282839	
0.411544	0.755455	0.599556	0.564935	0.429155	2.272298	0.282749	
0.418147	0.738421	0.640866	0.552859	0.401221	2.173399	0.282592	
0.425603	0.719589	0.686488	0.541406	0.371848	2.067000	0.282383	
0.432206	0.703532	0.725323	0.533110	0.348049	1.978865	0.282163	
0.436445	0.693698	0.749058	0.528659	0.334047	1.926178	0.281999	
0.438555	0.688987	0.760408	0.526690	0.327497	1.901324	0.281909	
0.442794	0.679994	0.782029	0.523220	0.315288	1.854651	0.281708	
0.449397	0.667621	0.811595	0.519056	0.299179	1.792508	0.281336	
0.456853	0.656862	0.836960	0.516027	0.285960	1.741370	0.280836	
0.463456	0.650653	0.851240	0.514562	0.278827	1.714140	0.280383	
0.467695	0.648174	0.856738	0.514050	0.276171	1.704300	0.280120	
0.469805	0.647292	0.858628	0.513882	0.275276	1.701094	0.280002	
0.474044	0.646060	0.861149	0.513660	0.274109	1.697111	0.279797	
0.480647	0.645037	0.862934	0.513494	0.273329	1.694964	0.279531	
0.488103	0.644479	0.863490	0.513409	0.273142	1.695275	0.279263	
0.494706	0.644126	0.863532	0.513348	0.273190	1.696499	0.279009	
0.498945	0.643890	0.863504	0.513299	0.273245	1.697463	0.278828	
0.501055	0.643760	0.863502	0.513271	0.273266	1.697938	0.278733	
0.505294	0.643433	0.863533	0.513192	0.273292	1.698960	0.278507	
0.511897	0.642850	0.863600	0.513056	0.273336	1.700776	0.278106	
0.519353	0.641836	0.863678	0.512815	0.273430	1.704048	0.277401	
0.525956	0.640030	0.863936	0.512375	0.273521	1.709424	0.276185	
0.530195	0.637618	0.864477	0.511774	0.273521	1.715894	0.274625	
0.532305	0.635776	0.864973	0.511336	0.273499	1.720724	0.273447	
0.536544	0.629206	0.866566	0.509667	0.273420	1.738193	0.269258	
0.543147	0.607500	0.871447	0.504039	0.273365	1.799935	0.255472	
0.550603	0.550997	0.882873	0.487963	0.273222	1.983471	0.220730	
0.557206	0.472516	0.897144	0.463424	0.273267	2.313296	0.175277	
0.561445	0.415577	0.906863	0.444206	0.273321	2.630765	0.144556	
0.563555	0.388148	0.910913	0.434461	0.273425	2.817745	0.130458	
0.567794	0.337249	0.917381	0.415538	0.273626	3.245388	0.105619	
0.574397	0.274561	0.920293	0.390287	0.274019	3.992104	0.077529	
0.581853	0.227794	0.913457	0.369421	0.274385	4.818115	0.058550	
0.588456	0.202730	0.902045	0.357041	0.274562	5.417286	0.049142	
0.592695	0.192208	0.894311	0.351444	0.274581	5.714242	0.045365	
0.594805	0.188234	0.890540	0.349220	0.274580	5.834852	0.043965	
0.599044	0.182109	0.883860	0.345671	0.274539	6.030187	0.041840	
0.605647	0.176256	0.875879	0.342051	0.274442	6.228275	0.039846	
0.613103	0.172954	0.870371	0.339839	0.274329	6.344544	0.038740	
0.619706	0.171611	0.867823	0.338881	0.274259	6.392592	0.038294	
0.623945	0.171173	0.866907	0.338565	0.274244	6.408590	0.038149	
0.626055	0.171031	0.866592	0.338466	0.274245	6.413918	0.038101	
0.630294	0.170851	0.866166	0.338351	0.274261	6.421051	0.038040	
0.636897	0.170744	0.865763	0.338330	0.274340	6.426929	0.037999	
0.644353	0.170741	0.865562	0.338418	0.274459	6.429842	0.037989	
0.650956	0.170765	0.865678	0.338514	0.274528	6.430525	0.037993	
0.655195	0.170784	0.865845	0.338581	0.274564	6.430686	0.037996	
0.657305	0.170793	0.865966	0.338609	0.274571	6.430480	0.037999	
0.661544	0.170812	0.866227	0.338681	0.274596	6.430377	0.038004	
0.668147	0.170845	0.866661	0.338808	0.274647	6.430312	0.038011	
0.675603	0.170858	0.867394	0.338933	0.274659	6.430092	0.038015	
0.682206	0.170877	0.867842	0.339104	0.274756	6.431675	0.038014	
0.686445	0.170927	0.867543	0.339282	0.274959	6.434523	0.038017	
0.688555	0.170942	0.867863	0.339270	0.274894	6.432447	0.038027	
0.692794	0.170955	0.868362	0.339387	0.274932	6.432868	0.038028	
0.699397	0.170988	0.867873	0.339654	0.275260	6.439302	0.038016	
0.706853	0.170935	0.867661	0.339511	0.275169	6.439159	0.038005	
0.713456	0.170858	0.867043	0.339048	0.274825	6.433982	0.038003	
0.717695	0.170812	0.863226	0.338399	0.274758	6.434175	0.037992	
0.719805	0.170800	0.864484	0.338540	0.274718	6.433672	0.037991	
0.724044	0.169748	0.852040	0.333041	0.271425	6.395960	0.037868	
0.730647	0.168360	0.836066	0.327712	0.268870	6.387974	0.037582	
0.738103	0.159884	0.705757	0.282366	0.242548	6.068094	0.036619	
0.744706	0.140734	0.350468	0.178464	0.169821	4.826708	0.036141	
0.748945	0.126357	0.044711	0.110773	0.110646	3.502657	0.038091	
0.751055	0.122961	-0.030614	0.097167	0.097109	3.159014	0.039032	
0.755294	0.125910	0.014718	0.101733	0.101719	3.231485	0.039517	
0.761897	0.125140	0.005280	0.101172	0.101170	3.233809	0.039261	
0.769353	0.124781	-0.005207	0.099127	0.099125	3.177576	0.039493	
0.775956	0.125278	0.005249	0.100726	0.100724	3.216014	0.039413	
0.780195	0.124863	-0.000602	0.100163	0.100163	3.208752	0.039327	
0.782305	0.124776	-0.005205	0.099209	0.099207	3.180333	0.039475	
0.786544	0.125051	0.000699	0.100045	0.100045	3.200128	0.039439	
0.793147	0.125004	0.000231	0.100055	0.100055	3.201671	0.039415	
0.800603	0.124989	-0.000302	0.099948	0.099948	3.198632	0.039429	
0.807206	0.125018	0.000362	0.100052	0.100052	3.201218	0.039422	
0.811445	0.124986	-0.000168	0.099991	0.099991	3.200068	0.039419	
0.813555	0.124986	-0.000320	0.099947	0.099947	3.198652	0.039428	
0.817794	0.125005	0.000076	0.100008	0.100008	3.200149	0.039425	
0.824397	0.124999	0.000001	0.100001	0.100001	3.200060	0.039423	
0.831853	0.125000	-0.000014	0.099997	0.099997	3.199925	0.039424	
0.838456	0.125001	0.000024	0.100004	0.100004	3.200091	0.039424	
0.842695	0.124999	-0.000023	0.099997	0.099997	3.199956	0.039424	
0.844805	0.124999	-0.000016	0.099997	0.099997	3.199914	0.039424	
0.849044	0.125000	0.000008	0.100001	0.100001	3.200024	0.039424	
0.855647	0.125000	-0.000001	0.100000	0.100000	3.199998	0.039424	
0.863103	0.125000	-0.000000	0.100000	0.100000	3.199998	0.039424	
0.869706	0.125000	0.000001	0.100000	0.100000	3.200005	0.039424	
0.873945	0.125000	-0.000002	0.100000	0.100000	3.199993	0.039424	
0.876055	0.125000	-0.000000	0.100000	0.100000	3.199997	0.039424	
0.880294	0.125000	0.000000	0.100000	0.100000	3.200002	0.039424	
0.886897	0.125000	-0.000000	0.100000	0.100000	3.200000	0.039424	
0.894353	0.125000	0.000000	0.100000	0.100000	3.200000	0.039424	
0.900956	0.125000	0.000000	0.100000	0.100000	3.200000	0.039424	
0.905195	0.125000	-0.000000	0.100000	0.100000	3.200000	0.039424	
0.907305	0.125000	0.000000	0.100000	0.100000	3.200000	0.039424	
0.911544	0.125000	0.000000	0.100000	0.100000	3.200000	0.039424	
0.918147	0.125000	-0.000000	0.100000	0.100000	3.200000	0.039424	
0.925603	0.125000	0.000000	0.100000	0.100000	3.200000	0.039424	
0.932206	0.125000	0.000000	0.100000	0.100000	3.200000	0.039424	
0.936445	0.125000	-0.000000	0.100000	0.100000	3.200000	0.039424	
0.938555	0.125000	0.000000	0.100000	0.100000	3.200000	0.039424	
0.942794	0.125000	0.000000	0.100000	0.100000	3.200000	0.039424	
0.949397	0.125000	-0.000000	0.100000	0.100000	3.200000	0.039424	
0.956853	0.125000	0.000000	0.100000	0.100000	3.200000	0.039424	
0.963456	0.125000	-0.000000	0.100000	0.100000	3.200000	0.039424	
0.967695	0.125000	-0.000000	0.100000	0.100000	3.200000	0.039424	
0.969805	0.125000	0.000000	0.100000	0.100000	3.200000	0.039424	
0.974044	0.125000	0.000000	0.100000	0.100000	3.200000	0.039424	
0.980647	0.125000	-0.000000	0.100000	0.100000	3.200000	0.039424	
0.988103	0.125000	-0.000000	0.100000	0.100000	3.200000	0.039424	
0.994706	0.125000	-0.000000	0.100000	0.100000	3.200000	0.039424	
0.998945	0.125000	-0.000000	0.100000	0.100000	3.200000	0.039424	
