TITLE = "DG1DMBX16-P4RK3w1000iv80"
VARIABLES = "x" "Density" "Velocity in x" "Energy" "Pressure" "Temperature" "Fugacity"
ZONE T = "Final Time 0.10"
I = 80, J = 1, K = 1, F = POINT

0.002932	1.000000	0.000000	1.000000	1.000000	4.000000	0.282095	
0.014423	1.000000	0.000000	1.000000	1.000000	4.000000	0.282095	
0.031250	1.000000	-0.000000	1.000000	1.000000	4.000000	0.282095	
0.048077	1.000000	0.000000	1.000000	1.000000	3.999999	0.282095	
0.059568	1.000000	-0.000000	1.000000	1.000000	4.000001	0.282095	
0.065432	1.000000	-0.000001	1.000001	1.000001	4.000002	0.282095	
0.076923	1.000000	0.000000	1.000000	1.000000	3.999999	0.282095	
0.093750	1.000000	-0.000000	1.000000	1.000000	4.000001	0.282095	
0.110577	1.000000	-0.000001	1.000001	1.000001	4.000002	0.282095	
0.122068	0.999999	0.000004	0.999995	0.999995	3.999985	0.282095	
0.127932	1.000000	-0.000000	1.000001	1.000001	4.000004	0.282095	
0.139423	1.000001	-0.000003	1.000004	1.000004	4.000011	0.282095	
0.156250	0.999998	0.000004	0.999994	0.999994	3.999982	0.282095	
0.173077	1.000001	-0.000004	1.000008	1.000008	4.000026	0.282094	
0.184568	1.000009	-0.000021	1.000023	1.000023	4.000056	0.282095	
0.190432	0.999991	0.000026	0.999963	0.999963	3.999890	0.282096	
0.201923	0.999995	0.000011	0.999988	0.999988	3.999973	0.282094	
0.218750	1.000014	-0.000035	1.000046	1.000046	4.000129	0.282094	
0.235577	0.999975	0.000068	0.999899	0.999899	3.999699	0.282098	
0.247068	0.999973	0.000046	0.999977	0.999977	4.000015	0.282087	
0.252932	1.000089	-0.000227	1.000300	1.000300	4.000846	0.282090	
0.264423	1.000010	-0.000005	0.999987	0.999987	3.999910	0.282101	
0.281250	0.999911	0.000209	0.999732	0.999732	3.999284	0.282095	
0.298077	1.000196	-0.000515	1.000719	1.000719	4.002092	0.282076	
0.309568	1.000118	-0.000121	0.999977	0.999977	3.999437	0.282148	
0.315432	0.999453	0.001371	0.998162	0.998161	3.994827	0.282123	
0.326923	0.999850	0.000251	0.999809	0.999809	3.999837	0.282058	
0.343750	1.000732	-0.001783	1.002311	1.002310	4.006307	0.282079	
0.360577	0.999199	0.002193	0.996741	0.996738	3.990150	0.282216	
0.372068	0.998169	0.004000	0.995469	0.995461	3.989150	0.281961	
0.377932	1.000441	-0.000866	1.002418	1.002417	4.007902	0.281941	
0.389423	1.002291	-0.005936	1.006794	1.006777	4.017902	0.282110	
0.406250	0.987810	0.033085	0.956765	0.956224	3.872100	0.283221	
0.423077	0.941674	0.148416	0.832761	0.822390	3.493308	0.284255	
0.434568	0.893733	0.262217	0.736353	0.705627	3.158113	0.283739	
0.440432	0.869680	0.324056	0.691489	0.645825	2.970404	0.284693	
0.451923	0.813946	0.465875	0.615102	0.526773	2.588735	0.285415	
0.468750	0.715559	0.688759	0.538239	0.368512	2.059997	0.281279	
0.485577	0.649643	0.849649	0.515188	0.280698	1.728325	0.278796	
0.497068	0.649634	0.861435	0.518243	0.277206	1.706841	0.280542	
0.502932	0.643168	0.870342	0.516733	0.273135	1.698684	0.278415	
0.514423	0.595711	0.880341	0.503484	0.272646	1.830729	0.248398	
0.531250	0.354875	0.927725	0.427906	0.275190	3.101829	0.113682	
0.548077	0.189063	0.929576	0.357160	0.275474	5.828176	0.044184	
0.559568	0.171045	0.857285	0.339378	0.276524	6.466694	0.037948	
0.565432	0.173540	0.876296	0.341190	0.274560	6.328473	0.038920	
0.576923	0.171789	0.879927	0.342254	0.275748	6.420596	0.038250	
0.593750	0.169991	0.886308	0.347568	0.280801	6.607414	0.037311	
0.610577	0.152140	0.540407	0.227257	0.205041	5.390870	0.036969	
0.622068	0.126780	-0.007912	0.100515	0.100511	3.171170	0.040167	
0.627932	0.112681	-0.206411	0.075813	0.073413	2.606057	0.039381	
0.639423	0.128265	0.054519	0.107390	0.107200	3.343078	0.039578	
0.656250	0.124882	0.002913	0.101076	0.101075	3.237465	0.039158	
0.673077	0.124107	-0.017705	0.097151	0.097132	3.130583	0.039574	
0.684568	0.127027	0.029814	0.104141	0.104084	3.277554	0.039586	
0.690432	0.125070	0.007692	0.101754	0.101750	3.254180	0.039116	
0.701923	0.124462	-0.010075	0.098419	0.098413	3.162821	0.039484	
0.718750	0.125232	0.003964	0.100599	0.100598	3.213183	0.039416	
0.735577	0.124925	-0.000941	0.099885	0.099885	3.198236	0.039411	
0.747068	0.124825	-0.003856	0.099431	0.099430	3.186233	0.039454	
0.752932	0.125162	0.002969	0.100358	0.100357	3.207291	0.039430	
0.764423	0.125012	0.000352	0.100082	0.100082	3.202296	0.039414	
0.781250	0.124979	-0.000443	0.099928	0.099928	3.198229	0.039428	
0.798077	0.125022	0.000405	0.100059	0.100059	3.201338	0.039423	
0.809568	0.124987	-0.000147	0.099987	0.099987	3.199909	0.039420	
0.815432	0.124982	-0.000397	0.099937	0.099937	3.198451	0.039428	
0.826923	0.125008	0.000138	0.100020	0.100020	3.200433	0.039424	
0.843750	0.124998	-0.000031	0.099996	0.099996	3.199919	0.039424	
0.860577	0.125000	-0.000012	0.099998	0.099998	3.199940	0.039424	
0.872068	0.125004	0.000069	0.100010	0.100010	3.200220	0.039424	
0.877932	0.124998	-0.000025	0.099998	0.099998	3.199968	0.039424	
0.889423	0.124999	-0.000011	0.099998	0.099998	3.199949	0.039424	
0.906250	0.125000	0.000007	0.100001	0.100001	3.200027	0.039424	
0.923077	0.125000	-0.000005	0.099999	0.099999	3.199984	0.039424	
0.934568	0.125000	-0.000000	0.100000	0.100000	3.199994	0.039424	
0.940432	0.125000	0.000006	0.100001	0.100001	3.200021	0.039424	
0.951923	0.125000	-0.000001	0.100000	0.100000	3.199996	0.039424	
0.968750	0.125000	0.000000	0.100000	0.100000	3.200001	0.039424	
0.985577	0.125000	0.000000	0.100000	0.100000	3.200001	0.039424	
0.997068	0.125000	-0.000001	0.100000	0.100000	3.199997	0.039424	
