TITLE = "DG1DFDX32-P4RK4w10000iv80"
VARIABLES = "x" "Density" "Velocity in x" "Energy" "Pressure" "Temperature" "Fugacity"
ZONE T = "Final Time 0.10"
I = 160, J = 1, K = 1, F = POINT

0.001466	0.827055	-0.000004	0.907245	0.907245	4.029763	0.276704	
0.007211	0.827052	0.000003	0.907237	0.907237	4.029740	0.276704	
0.015625	0.827053	0.000001	0.907239	0.907239	4.029747	0.276704	
0.024039	0.827056	-0.000009	0.907250	0.907250	4.029779	0.276704	
0.029784	0.827050	0.000009	0.907231	0.907231	4.029723	0.276704	
0.032716	0.827048	0.000018	0.907222	0.907222	4.029695	0.276704	
0.038461	0.827054	-0.000003	0.907244	0.907244	4.029761	0.276704	
0.046875	0.827058	-0.000014	0.907255	0.907255	4.029795	0.276704	
0.055289	0.827044	0.000029	0.907209	0.907209	4.029658	0.276704	
0.061034	0.827050	0.000010	0.907230	0.907230	4.029719	0.276704	
0.063966	0.827068	-0.000045	0.907289	0.907289	4.029894	0.276704	
0.069711	0.827062	-0.000028	0.907270	0.907270	4.029837	0.276704	
0.078125	0.827035	0.000057	0.907181	0.907181	4.029573	0.276704	
0.086539	0.827063	-0.000030	0.907272	0.907272	4.029843	0.276704	
0.092284	0.827099	-0.000142	0.907391	0.907391	4.030200	0.276704	
0.095216	0.827059	-0.000019	0.907261	0.907261	4.029808	0.276704	
0.100961	0.827007	0.000143	0.907089	0.907089	4.029301	0.276704	
0.109375	0.827065	-0.000037	0.907280	0.907280	4.029866	0.276704	
0.117789	0.827127	-0.000228	0.907482	0.907482	4.030470	0.276704	
0.123534	0.826966	0.000270	0.906955	0.906955	4.028897	0.276704	
0.126466	0.826901	0.000473	0.906740	0.906740	4.028268	0.276704	
0.132211	0.827049	0.000012	0.907229	0.907229	4.029713	0.276704	
0.140625	0.827218	-0.000510	0.907782	0.907782	4.031355	0.276704	
0.149039	0.826893	0.000497	0.906714	0.906714	4.028192	0.276704	
0.154784	0.826733	0.000988	0.906195	0.906194	4.026631	0.276704	
0.157716	0.827014	0.000126	0.907108	0.907108	4.029364	0.276704	
0.163461	0.827431	-0.001172	0.908483	0.908483	4.033431	0.276704	
0.171875	0.827094	-0.000122	0.907370	0.907370	4.030143	0.276704	
0.180289	0.826391	0.002048	0.905073	0.905072	4.023302	0.276704	
0.186034	0.827127	-0.000218	0.907475	0.907475	4.030464	0.276704	
0.188966	0.827766	-0.002215	0.909592	0.909590	4.036697	0.276704	
0.194711	0.827827	-0.002399	0.909787	0.909785	4.037295	0.276704	
0.203125	0.826381	0.002090	0.905031	0.905029	4.023204	0.276704	
0.211539	0.826225	0.002547	0.904536	0.904533	4.021679	0.276704	
0.217284	0.828403	-0.004140	0.911663	0.911656	4.042914	0.276704	
0.220216	0.829138	-0.006486	0.914154	0.914137	4.050091	0.276704	
0.225961	0.828680	-0.005029	0.912595	0.912585	4.045619	0.276704	
0.234375	0.822793	0.013202	0.893359	0.893288	3.988339	0.276704	
0.242789	0.812415	0.045423	0.860753	0.859915	3.888368	0.276704	
0.248534	0.804665	0.069538	0.837403	0.835458	3.814178	0.276719	
0.251466	0.800475	0.082424	0.825284	0.822564	3.774911	0.276704	
0.257211	0.792300	0.107801	0.802212	0.797608	3.698197	0.276704	
0.265625	0.780109	0.145623	0.769629	0.761358	3.585267	0.276704	
0.274039	0.767732	0.184001	0.738686	0.725690	3.472406	0.276704	
0.279784	0.759271	0.210477	0.718537	0.701719	3.395042	0.276765	
0.282716	0.754883	0.224052	0.708622	0.689675	3.356218	0.276750	
0.288461	0.746207	0.250780	0.689812	0.666347	3.280422	0.276704	
0.296875	0.733534	0.290097	0.663835	0.632970	3.169943	0.276704	
0.305289	0.720786	0.329647	0.639703	0.600540	3.060721	0.276704	
0.311034	0.712174	0.356703	0.624274	0.578966	2.986369	0.276795	
0.313966	0.707739	0.370557	0.616705	0.568114	2.948745	0.276825	
0.319711	0.698786	0.397883	0.602523	0.547210	2.876736	0.276704	
0.328125	0.685850	0.437976	0.583163	0.517382	2.771212	0.276704	
0.336539	0.672850	0.478204	0.565448	0.488515	2.667150	0.276704	
0.342284	0.664091	0.505751	0.554290	0.469358	2.596252	0.276825	
0.345216	0.659638	0.519846	0.548903	0.459773	2.560369	0.276901	
0.350961	0.650440	0.547880	0.538928	0.441306	2.492445	0.276704	
0.359375	0.637235	0.588855	0.525457	0.414976	2.392269	0.276704	
0.367789	0.624081	0.629786	0.513431	0.389666	2.293679	0.276765	
0.373534	0.615127	0.657811	0.506028	0.372940	2.227108	0.276855	
0.376466	0.610678	0.671942	0.502513	0.364650	2.193389	0.276976	
0.382211	0.601487	0.700096	0.496103	0.348699	2.129626	0.276840	
0.390625	0.588144	0.741027	0.487692	0.326211	2.037501	0.276735	
0.399039	0.575381	0.780695	0.480614	0.305271	1.948959	0.276825	
0.404784	0.566960	0.807002	0.476553	0.291936	1.891454	0.276901	
0.407716	0.562900	0.819845	0.474781	0.285605	1.863775	0.276961	
0.413461	0.554576	0.845827	0.471501	0.273122	1.809061	0.276961	
0.421875	0.546335	0.871193	0.468661	0.261333	1.757154	0.276825	
0.430289	0.547650	0.867014	0.469002	0.263164	1.765135	0.276871	
0.436034	0.552267	0.853143	0.470580	0.269595	1.793205	0.277037	
0.438966	0.552515	0.851743	0.470873	0.270457	1.798287	0.276719	
0.444711	0.551411	0.855757	0.470220	0.268315	1.787318	0.277067	
0.453125	0.548378	0.864647	0.469045	0.264058	1.768848	0.276961	
0.461539	0.549315	0.861196	0.469365	0.265663	1.776533	0.276810	
0.467284	0.552294	0.852847	0.470446	0.269591	1.793047	0.277067	
0.470216	0.552177	0.853020	0.470569	0.269675	1.793939	0.276916	
0.475961	0.550456	0.857748	0.470231	0.267737	1.786883	0.276538	
0.484375	0.548698	0.863432	0.469317	0.264786	1.772711	0.276795	
0.492789	0.549529	0.859189	0.469752	0.266920	1.784655	0.276191	
0.498534	0.551162	0.853768	0.470617	0.269741	1.798268	0.275919	
0.501466	0.551005	0.854700	0.470610	0.269352	1.796077	0.276025	
0.507211	0.549360	0.860284	0.470020	0.266732	1.783885	0.276161	
0.515625	0.548238	0.864014	0.469299	0.264664	1.773498	0.276448	
0.524039	0.551060	0.856004	0.469931	0.268039	1.786692	0.276916	
0.529784	0.552578	0.852367	0.470326	0.269594	1.791923	0.277339	
0.532716	0.551584	0.854941	0.470038	0.268455	1.787787	0.277127	
0.538461	0.550090	0.861406	0.469619	0.265530	1.772889	0.277611	
0.546875	0.548831	0.863766	0.469565	0.264826	1.772429	0.276901	
0.555289	0.547758	0.855688	0.469327	0.268792	1.804239	0.273366	
0.561034	0.548473	0.854084	0.469463	0.269419	1.806084	0.273623	
0.563966	0.549346	0.856077	0.469382	0.268083	1.793396	0.275285	
0.569711	0.558580	0.862314	0.472984	0.265308	1.740598	0.285812	
0.578125	0.523659	0.867025	0.460633	0.263807	1.861898	0.254516	
0.586539	0.379259	0.867120	0.409504	0.266922	2.685704	0.143632	
0.592284	0.259092	0.868472	0.365929	0.268220	4.034674	0.076688	
0.595216	0.213963	0.865977	0.349084	0.268857	4.930711	0.056524	
0.600961	0.172564	0.860925	0.331911	0.267960	6.127138	0.040452	
0.609375	0.165543	0.851758	0.327659	0.267609	6.381725	0.037960	
0.617789	0.165991	0.859526	0.327152	0.265836	6.322858	0.038247	
0.623534	0.163697	0.861040	0.326288	0.265606	6.408044	0.037446	
0.626466	0.164362	0.859750	0.325977	0.265231	6.369734	0.037718	
0.632211	0.166373	0.857331	0.327492	0.266349	6.317918	0.038353	
0.640625	0.165287	0.859857	0.330074	0.268972	6.426562	0.037764	
0.649039	0.164336	0.859595	0.329122	0.268408	6.448022	0.037477	
0.654784	0.165196	0.853970	0.328112	0.267876	6.399552	0.037824	
0.657716	0.166097	0.851319	0.328311	0.268122	6.370092	0.038126	
0.663461	0.166160	0.857022	0.328272	0.267251	6.350372	0.038202	
0.671875	0.163680	0.873175	0.327278	0.264881	6.391587	0.037492	
0.680289	0.163913	0.870692	0.326874	0.264743	6.374702	0.037597	
0.686034	0.165873	0.855865	0.327792	0.267041	6.352911	0.038126	
0.688966	0.166931	0.847216	0.328373	0.268464	6.345763	0.038398	
0.694711	0.166735	0.846730	0.329146	0.269375	6.379671	0.038247	
0.703125	0.164372	0.859808	0.328208	0.267451	6.425588	0.037552	
0.711539	0.165240	0.860665	0.328040	0.266840	6.373211	0.037915	
0.717284	0.167060	0.856215	0.327866	0.266629	6.297568	0.038579	
0.720216	0.166511	0.862483	0.326987	0.265056	6.284935	0.038489	
0.725961	0.163267	0.865727	0.325158	0.263975	6.384426	0.037416	
0.734375	0.164446	0.853663	0.326388	0.266469	6.396201	0.037658	
0.742789	0.167625	0.847244	0.329056	0.268893	6.330562	0.038609	
0.748534	0.165937	0.850789	0.329627	0.269571	6.412120	0.037960	
0.751466	0.163136	0.851504	0.328887	0.269746	6.527398	0.036963	
0.757211	0.163542	0.859462	0.326689	0.266287	6.431233	0.037341	
0.765625	0.167674	0.862628	0.327728	0.265343	6.243551	0.038896	
0.774039	0.163937	0.858559	0.327940	0.267519	6.442002	0.037401	
0.779784	0.159539	0.885690	0.323594	0.261019	6.462304	0.036313	
0.782716	0.162873	0.870764	0.325235	0.263488	6.388748	0.037310	
0.788461	0.171226	0.848882	0.331465	0.269773	6.216319	0.039833	
0.796875	0.163297	0.859768	0.330499	0.270145	6.535032	0.036978	
0.805289	0.163308	0.854257	0.331109	0.271521	6.567250	0.036887	
0.811034	0.172666	0.853351	0.329806	0.266937	6.098904	0.040573	
0.813966	0.171686	0.847483	0.316184	0.254529	5.846568	0.041222	
0.819711	0.162362	0.923623	0.349906	0.280652	6.830894	0.035936	
0.828125	0.158122	0.770300	0.291148	0.244236	6.098240	0.037069	
0.836539	0.125985	0.012145	0.098243	0.098233	3.073363	0.041736	
0.842284	0.103313	-0.297384	0.066335	0.061766	2.359650	0.038987	
0.845216	0.136014	0.201227	0.133281	0.130527	3.784474	0.040573	
0.850961	0.121565	0.028548	0.104505	0.104456	3.391270	0.038247	
0.859375	0.119666	-0.029279	0.093087	0.093036	3.067843	0.039621	
0.867789	0.124092	0.042393	0.105240	0.105129	3.343486	0.039349	
0.873534	0.118981	-0.026184	0.094501	0.094460	3.131967	0.038972	
0.876466	0.119333	-0.048099	0.091972	0.091833	3.037241	0.039712	
0.882211	0.122585	0.022822	0.102085	0.102053	3.284787	0.039214	
0.890625	0.120860	-0.007472	0.097386	0.097382	3.178685	0.039304	
0.899039	0.121449	0.001792	0.098782	0.098782	3.209757	0.039304	
0.904784	0.121985	0.011821	0.100087	0.100079	3.238167	0.039304	
0.907716	0.120786	-0.009800	0.097223	0.097218	3.177193	0.039289	
0.913461	0.121290	-0.000700	0.098394	0.098394	3.201341	0.039304	
0.921875	0.121417	0.001531	0.098714	0.098713	3.208050	0.039304	
0.930289	0.121228	-0.001844	0.098252	0.098251	3.198084	0.039304	
0.936034	0.121407	0.001353	0.098684	0.098683	3.207513	0.039304	
0.938966	0.121435	0.001900	0.098756	0.098756	3.209007	0.039304	
0.944711	0.121273	-0.001056	0.098361	0.098361	3.200439	0.039304	
0.953125	0.121353	0.000402	0.098555	0.098555	3.204674	0.039304	
0.961539	0.121327	-0.000063	0.098493	0.098493	3.203326	0.039304	
0.967284	0.121300	-0.000549	0.098428	0.098428	3.201889	0.039304	
0.970216	0.121352	0.000378	0.098552	0.098552	3.204629	0.039304	
0.975961	0.121334	0.000070	0.098511	0.098511	3.203700	0.039304	
0.984375	0.121326	-0.000084	0.098490	0.098490	3.203264	0.039304	
0.992789	0.121335	0.000087	0.098513	0.098513	3.203754	0.039304	
0.998534	0.121329	-0.000038	0.098496	0.098496	3.203394	0.039304	
