TITLE = "DG1DMBX32-P4RK4w1000iv20"
VARIABLES = "x" "Density" "Velocity in x" "Energy" "Pressure" "Temperature" "Fugacity"
ZONE T = "Final Time 0.10"
I = 160, J = 1, K = 1, F = POINT

0.001466	0.998359	0.000000	0.964390	0.964390	3.863902	0.286549	
0.007211	0.998359	0.000000	0.964390	0.964390	3.863902	0.286549	
0.015625	0.998359	0.000000	0.964390	0.964390	3.863902	0.286549	
0.024039	0.998359	0.000000	0.964390	0.964390	3.863902	0.286549	
0.029784	0.998359	-0.000000	0.964390	0.964390	3.863902	0.286549	
0.032716	0.998359	-0.000000	0.964390	0.964390	3.863902	0.286549	
0.038461	0.998359	0.000000	0.964390	0.964390	3.863902	0.286549	
0.046875	0.998359	0.000000	0.964390	0.964390	3.863902	0.286549	
0.055289	0.998359	-0.000000	0.964390	0.964390	3.863902	0.286549	
0.061034	0.998359	-0.000000	0.964390	0.964390	3.863902	0.286549	
0.063966	0.998359	0.000000	0.964390	0.964390	3.863902	0.286549	
0.069711	0.998359	0.000000	0.964390	0.964390	3.863902	0.286549	
0.078125	0.998359	-0.000000	0.964390	0.964390	3.863902	0.286549	
0.086539	0.998359	-0.000000	0.964390	0.964390	3.863902	0.286549	
0.092284	0.998359	0.000000	0.964390	0.964390	3.863902	0.286549	
0.095216	0.998359	0.000000	0.964390	0.964390	3.863902	0.286549	
0.100961	0.998359	-0.000000	0.964390	0.964390	3.863902	0.286549	
0.109375	0.998359	-0.000000	0.964390	0.964390	3.863902	0.286549	
0.117789	0.998359	0.000000	0.964390	0.964390	3.863902	0.286549	
0.123534	0.998359	0.000000	0.964390	0.964390	3.863902	0.286549	
0.126466	0.998359	-0.000000	0.964390	0.964390	3.863902	0.286549	
0.132211	0.998359	-0.000000	0.964390	0.964390	3.863902	0.286549	
0.140625	0.998359	0.000000	0.964390	0.964390	3.863902	0.286549	
0.149039	0.998359	0.000000	0.964390	0.964390	3.863902	0.286549	
0.154784	0.998359	-0.000000	0.964390	0.964390	3.863902	0.286549	
0.157716	0.998359	-0.000000	0.964391	0.964391	3.863903	0.286549	
0.163461	0.998359	0.000000	0.964390	0.964390	3.863901	0.286549	
0.171875	0.998359	0.000000	0.964390	0.964390	3.863900	0.286549	
0.180289	0.998358	0.000003	0.964386	0.964386	3.863887	0.286549	
0.186034	0.998353	0.000016	0.964367	0.964367	3.863831	0.286550	
0.188966	0.998347	0.000033	0.964344	0.964344	3.863762	0.286551	
0.194711	0.998318	0.000113	0.964238	0.964238	3.863451	0.286554	
0.203125	0.998182	0.000476	0.963756	0.963755	3.862044	0.286567	
0.211539	0.997740	0.001632	0.962251	0.962250	3.857718	0.286601	
0.217284	0.997073	0.003361	0.960036	0.960030	3.851393	0.286644	
0.220216	0.996550	0.004702	0.958336	0.958325	3.846571	0.286673	
0.225961	0.995054	0.008507	0.953572	0.953536	3.833103	0.286745	
0.234375	0.991423	0.017617	0.942443	0.942290	3.801765	0.286874	
0.242789	0.985778	0.031606	0.925901	0.925408	3.755036	0.287010	
0.248534	0.980706	0.044051	0.911642	0.910691	3.714428	0.287090	
0.251466	0.977759	0.051256	0.903565	0.902280	3.691216	0.287126	
0.257211	0.971317	0.066943	0.886398	0.884222	3.641330	0.287181	
0.265625	0.960474	0.093206	0.858858	0.854686	3.559436	0.287223	
0.274039	0.948246	0.122699	0.829603	0.822465	3.469415	0.287222	
0.279784	0.939263	0.144319	0.809218	0.799437	3.404529	0.287199	
0.282716	0.934508	0.155745	0.798795	0.787461	3.370590	0.287181	
0.288461	0.924914	0.178787	0.778489	0.763706	3.302822	0.287133	
0.296875	0.910305	0.213845	0.749366	0.728552	3.201351	0.287042	
0.305289	0.895173	0.250139	0.721377	0.693372	3.098268	0.286928	
0.311034	0.884603	0.275489	0.703079	0.669510	3.027393	0.286840	
0.313966	0.879148	0.288574	0.694025	0.657419	2.991165	0.286792	
0.319711	0.868352	0.314469	0.676871	0.633935	2.920172	0.286693	
0.328125	0.852333	0.352907	0.653220	0.600143	2.816473	0.286538	
0.336539	0.836116	0.391841	0.631380	0.567191	2.713458	0.286372	
0.342284	0.824952	0.418656	0.617522	0.545226	2.643676	0.286253	
0.345216	0.819233	0.432397	0.610782	0.534198	2.608282	0.286191	
0.350961	0.807990	0.459422	0.598222	0.512952	2.539398	0.286066	
0.359375	0.791464	0.499167	0.581362	0.482758	2.439827	0.285875	
0.367789	0.774905	0.539017	0.566290	0.453719	2.342064	0.285676	
0.373534	0.763606	0.566226	0.557000	0.434589	2.276511	0.285535	
0.376466	0.757850	0.580090	0.552566	0.425056	2.243484	0.285461	
0.382211	0.746608	0.607179	0.544467	0.406842	2.179683	0.285313	
0.390625	0.730288	0.646521	0.533977	0.381351	2.088769	0.285085	
0.399039	0.714257	0.685178	0.525056	0.357395	2.001492	0.284841	
0.404784	0.703573	0.710944	0.519830	0.342022	1.944490	0.284663	
0.407716	0.698235	0.723815	0.517426	0.334521	1.916378	0.284568	
0.413461	0.688062	0.748334	0.513215	0.320557	1.863536	0.284370	
0.421875	0.674123	0.781889	0.508213	0.302150	1.792850	0.284048	
0.430289	0.661843	0.811355	0.504533	0.286688	1.732664	0.283676	
0.436034	0.654771	0.828250	0.502734	0.278148	1.699204	0.283395	
0.438966	0.651641	0.835692	0.502019	0.274472	1.684807	0.283242	
0.444711	0.646536	0.847791	0.500975	0.268627	1.661943	0.282950	
0.453125	0.641261	0.860160	0.500095	0.262868	1.639696	0.282539	
0.461539	0.638020	0.867704	0.499710	0.259524	1.627061	0.282200	
0.467284	0.636494	0.871213	0.499595	0.258041	1.621643	0.281995	
0.470216	0.635862	0.872646	0.499568	0.257459	1.619592	0.281894	
0.475961	0.634810	0.875023	0.499546	0.256520	1.616359	0.281709	
0.484375	0.633488	0.877953	0.499552	0.255406	1.612695	0.281441	
0.492789	0.632254	0.880602	0.499573	0.254429	1.609660	0.281157	
0.498534	0.631450	0.882256	0.499597	0.253844	1.608007	0.280944	
0.501466	0.631058	0.883031	0.499614	0.253582	1.607343	0.280828	
0.507211	0.630321	0.884429	0.499650	0.253126	1.606333	0.280588	
0.515625	0.629240	0.886368	0.499691	0.252511	1.605182	0.280207	
0.524039	0.628108	0.888282	0.499717	0.251915	1.604278	0.279782	
0.529784	0.627284	0.889510	0.499724	0.251561	1.604128	0.279428	
0.532716	0.626853	0.890060	0.499716	0.251417	1.604314	0.279220	
0.538461	0.625859	0.891135	0.499677	0.251173	1.605300	0.278691	
0.546875	0.623368	0.892891	0.499258	0.250767	1.609110	0.277253	
0.555289	0.617879	0.895335	0.498016	0.250362	1.620785	0.273820	
0.561034	0.608532	0.898017	0.495488	0.250117	1.644066	0.267762	
0.563966	0.600241	0.899998	0.493072	0.249976	1.665838	0.262382	
0.569711	0.574716	0.905237	0.485275	0.249798	1.738587	0.245912	
0.578125	0.506763	0.917009	0.462503	0.249433	1.968833	0.203763	
0.586539	0.417940	0.929503	0.429973	0.249428	2.387210	0.152614	
0.592284	0.358800	0.935887	0.406569	0.249435	2.780765	0.121394	
0.595216	0.332855	0.936988	0.395658	0.249544	2.998824	0.108444	
0.600961	0.290629	0.936072	0.376892	0.249563	3.434794	0.088474	
0.609375	0.249314	0.926277	0.356083	0.249128	3.997019	0.070356	
0.617789	0.225638	0.909921	0.341205	0.247795	4.392788	0.060739	
0.623534	0.215815	0.897036	0.333271	0.246440	4.567617	0.056972	
0.626466	0.211988	0.890180	0.329632	0.245640	4.634982	0.055554	
0.632211	0.206125	0.876657	0.323112	0.243906	4.733157	0.053454	
0.640625	0.199809	0.856604	0.314400	0.241093	4.826481	0.051313	
0.649039	0.194852	0.836208	0.306208	0.238083	4.887464	0.049727	
0.654784	0.191849	0.822007	0.300768	0.235952	4.919544	0.048800	
0.657716	0.190407	0.814682	0.298028	0.234841	4.933462	0.048365	
0.663461	0.187699	0.800250	0.292719	0.232617	4.957247	0.047563	
0.671875	0.183992	0.778934	0.285100	0.229282	4.984612	0.046495	
0.680289	0.180562	0.757455	0.277702	0.225905	5.004491	0.045538	
0.686034	0.178369	0.742719	0.272797	0.223601	5.014338	0.044940	
0.688966	0.177295	0.735192	0.270343	0.222428	5.018248	0.044653	
0.694711	0.175271	0.720566	0.265616	0.220114	5.023407	0.044120	
0.703125	0.172493	0.699324	0.258934	0.216755	5.026397	0.043408	
0.711539	0.169933	0.678185	0.252570	0.213491	5.025287	0.042768	
0.717284	0.168303	0.663909	0.248386	0.211294	5.021755	0.042373	
0.720216	0.167495	0.656882	0.246270	0.210133	5.018277	0.042184	
0.725961	0.165973	0.643299	0.242248	0.207905	5.010574	0.041833	
0.734375	0.163882	0.623520	0.236638	0.204781	4.998247	0.041357	
0.742789	0.161951	0.604120	0.231269	0.201716	4.982139	0.040936	
0.748534	0.160709	0.591486	0.227719	0.199607	4.968137	0.040679	
0.751466	0.160109	0.584569	0.225986	0.198630	4.962379	0.040550	
0.757211	0.158967	0.572342	0.222693	0.196656	4.948370	0.040318	
0.765625	0.157227	0.553453	0.217569	0.193489	4.922523	0.039982	
0.774039	0.155620	0.532217	0.212482	0.190441	4.895030	0.039684	
0.779784	0.154380	0.514925	0.208122	0.187655	4.862146	0.039501	
0.782716	0.153151	0.502820	0.204249	0.184889	4.828934	0.039320	
0.788461	0.151104	0.474615	0.197747	0.180728	4.784188	0.038976	
0.796875	0.141226	0.315840	0.160898	0.153854	4.357668	0.038169	
0.805289	0.128661	0.077461	0.113302	0.112916	3.510490	0.038743	
0.811034	0.123720	-0.019964	0.096912	0.096888	3.132485	0.039439	
0.813966	0.124843	-0.004674	0.098795	0.098794	3.165384	0.039589	
0.819711	0.125529	0.009638	0.101004	0.100998	3.218324	0.039478	
0.828125	0.124860	-0.001462	0.099474	0.099473	3.186708	0.039462	
0.836539	0.124930	-0.001520	0.099350	0.099350	3.180989	0.039519	
0.842284	0.125144	0.002863	0.100002	0.100002	3.196358	0.039492	
0.845216	0.124994	0.000700	0.099771	0.099771	3.192841	0.039466	
0.850961	0.124945	-0.000715	0.099507	0.099507	3.185618	0.039495	
0.859375	0.124991	0.000113	0.099627	0.099627	3.188297	0.039493	
0.867789	0.124987	0.000108	0.099632	0.099632	3.188571	0.039490	
0.873534	0.124970	-0.000238	0.099580	0.099580	3.187314	0.039493	
0.876466	0.124982	-0.000035	0.099605	0.099605	3.187813	0.039494	
0.882211	0.124986	0.000058	0.099623	0.099623	3.188283	0.039492	
0.890625	0.124982	-0.000012	0.099612	0.099612	3.188053	0.039492	
0.899039	0.124983	-0.000006	0.099613	0.099613	3.188048	0.039492	
0.904784	0.124984	0.000018	0.099616	0.099616	3.188140	0.039492	
0.907716	0.124983	0.000001	0.099614	0.099614	3.188095	0.039492	
0.913461	0.124982	-0.000004	0.099613	0.099613	3.188063	0.039492	
0.921875	0.124983	0.000001	0.099614	0.099614	3.188082	0.039492	
0.930289	0.124983	0.000000	0.099614	0.099614	3.188082	0.039492	
0.936034	0.124983	-0.000001	0.099613	0.099613	3.188074	0.039492	
0.938966	0.124983	-0.000000	0.099614	0.099614	3.188078	0.039492	
0.944711	0.124983	0.000000	0.099614	0.099614	3.188081	0.039492	
0.953125	0.124983	-0.000000	0.099614	0.099614	3.188079	0.039492	
0.961539	0.124983	-0.000000	0.099614	0.099614	3.188079	0.039492	
0.967284	0.124983	0.000000	0.099614	0.099614	3.188080	0.039492	
0.970216	0.124983	-0.000000	0.099614	0.099614	3.188079	0.039492	
0.975961	0.124983	-0.000000	0.099614	0.099614	3.188079	0.039492	
0.984375	0.124983	0.000000	0.099614	0.099614	3.188079	0.039492	
0.992789	0.124983	-0.000000	0.099614	0.099614	3.188079	0.039492	
0.998534	0.124983	-0.000000	0.099614	0.099614	3.188079	0.039492	
