TITLE = "DG1DBEX32-P3RK4w10000iv80"
VARIABLES = "x" "Density" "Velocity in x" "Energy" "Pressure" "Temperature" "Fugacity"
ZONE T = "Final Time 0.10"
I = 128, J = 1, K = 1, F = POINT

0.002170	1.318752	0.000002	1.141157	1.141157	3.925220	0.294407	
0.010313	1.318753	0.000001	1.141158	1.141158	3.925223	0.294407	
0.020937	1.318756	-0.000004	1.141166	1.141166	3.925242	0.294407	
0.029080	1.318753	0.000001	1.141158	1.141158	3.925224	0.294407	
0.033420	1.318748	0.000009	1.141147	1.141147	3.925197	0.294407	
0.041563	1.318754	-0.000000	1.141161	1.141161	3.925229	0.294407	
0.052187	1.318760	-0.000012	1.141178	1.141178	3.925268	0.294407	
0.060330	1.318744	0.000017	1.141135	1.141135	3.925170	0.294407	
0.064670	1.318739	0.000025	1.141123	1.141123	3.925143	0.294407	
0.072813	1.318761	-0.000013	1.141180	1.141180	3.925273	0.294407	
0.083437	1.318769	-0.000026	1.141199	1.141199	3.925317	0.294407	
0.091580	1.318712	0.000071	1.141053	1.141053	3.924982	0.294407	
0.095920	1.318720	0.000059	1.141072	1.141072	3.925027	0.294407	
0.104063	1.318788	-0.000060	1.141249	1.141249	3.925432	0.294407	
0.114687	1.318786	-0.000055	1.141242	1.141242	3.925419	0.294407	
0.122830	1.318621	0.000228	1.140817	1.140817	3.924437	0.294407	
0.127170	1.318664	0.000155	1.140927	1.140927	3.924696	0.294407	
0.135313	1.318864	-0.000191	1.141447	1.141447	3.925884	0.294407	
0.145937	1.318852	-0.000168	1.141413	1.141413	3.925812	0.294407	
0.154080	1.318382	0.000638	1.140202	1.140202	3.923018	0.294407	
0.158420	1.318441	0.000542	1.140348	1.140348	3.923371	0.294407	
0.166563	1.319014	-0.000451	1.141837	1.141837	3.926776	0.294407	
0.177187	1.319204	-0.000775	1.142324	1.142324	3.927908	0.294407	
0.185330	1.317956	0.001371	1.139101	1.139099	3.920480	0.294407	
0.189670	1.317583	0.002025	1.138125	1.138122	3.918264	0.294407	
0.197813	1.318870	-0.000201	1.141465	1.141465	3.925920	0.294407	
0.208437	1.320675	-0.003320	1.146156	1.146148	3.936674	0.294407	
0.216580	1.318806	-0.000084	1.141290	1.141290	3.925538	0.294407	
0.220920	1.316294	0.004232	1.134810	1.134798	3.910601	0.294407	
0.229063	1.315817	0.005092	1.133572	1.133555	3.907766	0.294407	
0.239687	1.320880	-0.003697	1.146712	1.146703	3.937900	0.294407	
0.247830	1.325204	-0.011143	1.158015	1.157932	3.963722	0.294407	
0.252170	1.323432	-0.008090	1.153414	1.153370	3.953127	0.294407	
0.260313	1.314413	0.007527	1.129949	1.129911	3.899433	0.294407	
0.270937	1.293338	0.043911	1.077692	1.076445	3.775387	0.294407	
0.279080	1.273679	0.077849	1.031962	1.028103	3.661485	0.294407	
0.283420	1.262980	0.096357	1.008269	1.002406	3.600233	0.294407	
0.291563	1.242349	0.132035	0.964915	0.954085	3.483570	0.294407	
0.302187	1.215022	0.179229	0.912015	0.892500	3.332007	0.294407	
0.310330	1.193879	0.215811	0.874402	0.846599	3.216631	0.294422	
0.314670	1.182425	0.235552	0.855380	0.822576	3.155622	0.294407	
0.322813	1.160878	0.272810	0.821625	0.778425	3.041663	0.294407	
0.333437	1.132469	0.321881	0.781328	0.722662	2.894612	0.294407	
0.341580	1.110688	0.359759	0.753264	0.681388	2.782868	0.294467	
0.345920	1.098719	0.380175	0.739349	0.659949	2.724651	0.294407	
0.354063	1.076458	0.418680	0.715001	0.620653	2.615361	0.294407	
0.364687	1.047218	0.469160	0.686689	0.571437	2.475210	0.294407	
0.372830	1.024947	0.508104	0.667460	0.535155	2.368542	0.294528	
0.377170	1.012932	0.528986	0.658123	0.516400	2.312729	0.294558	
0.385313	0.989510	0.568915	0.642209	0.482074	2.209929	0.294407	
0.395937	0.959291	0.621101	0.624281	0.439250	2.077007	0.294407	
0.404080	0.936767	0.660751	0.612725	0.408233	1.976958	0.294619	
0.408420	0.924949	0.681760	0.607271	0.392314	1.924343	0.294800	
0.416563	0.900751	0.722319	0.598610	0.363629	1.831249	0.294407	
0.427187	0.870654	0.774425	0.589207	0.328127	1.709561	0.294498	
0.435330	0.847940	0.813886	0.583678	0.302836	1.620241	0.294588	
0.439670	0.835013	0.836160	0.580969	0.289064	1.570387	0.294649	
0.447813	0.819868	0.863098	0.578740	0.273364	1.512739	0.294739	
0.458437	0.818358	0.865075	0.578468	0.272257	1.509162	0.294588	
0.466580	0.827747	0.850274	0.579822	0.280605	1.538295	0.295011	
0.470920	0.825101	0.853778	0.579506	0.278782	1.532919	0.294679	
0.479063	0.823380	0.855837	0.579529	0.277984	1.531379	0.294316	
0.489687	0.825447	0.852534	0.579206	0.279233	1.534610	0.294649	
0.497830	0.824812	0.854038	0.578606	0.277805	1.528210	0.294951	
0.502170	0.823082	0.856251	0.578294	0.276566	1.524421	0.294754	
0.510313	0.821399	0.857989	0.579116	0.276782	1.528254	0.293999	
0.520937	0.819540	0.858442	0.579432	0.277464	1.534696	0.293002	
0.529080	0.817974	0.857696	0.578753	0.277885	1.539216	0.292232	
0.533420	0.820264	0.856026	0.578881	0.278344	1.538022	0.292957	
0.541563	0.815259	0.857906	0.576474	0.276458	1.536143	0.291703	
0.552187	0.820626	0.859935	0.579367	0.275945	1.524977	0.294029	
0.560330	0.837801	0.854595	0.584846	0.278909	1.514264	0.299603	
0.564670	0.837602	0.855250	0.584749	0.278416	1.511967	0.299724	
0.572813	0.827568	0.858481	0.582201	0.277247	1.521108	0.296250	
0.583437	0.623153	0.858849	0.507793	0.277968	1.944342	0.213144	
0.591580	0.376862	0.851435	0.420092	0.283491	3.137328	0.110538	
0.595920	0.245081	0.866282	0.373753	0.281793	4.702471	0.060994	
0.604063	0.161151	0.862629	0.338013	0.278054	6.985781	0.033580	
0.614687	0.168522	0.866147	0.337605	0.274392	6.596206	0.036072	
0.622830	0.187217	0.862143	0.345944	0.276365	5.994953	0.041857	
0.627170	0.182790	0.858433	0.346037	0.278688	6.188212	0.040271	
0.635313	0.176699	0.854951	0.345138	0.280560	6.440451	0.038217	
0.645937	0.176690	0.849402	0.342325	0.278585	6.392941	0.038353	
0.654080	0.176260	0.850104	0.341879	0.278189	6.403296	0.038232	
0.658420	0.174806	0.862600	0.341683	0.276648	6.417392	0.037884	
0.666563	0.176834	0.863514	0.341365	0.275436	6.316069	0.038609	
0.677187	0.177349	0.854277	0.342184	0.277471	6.347827	0.038624	
0.685330	0.175922	0.851585	0.343563	0.279774	6.451888	0.038020	
0.689670	0.175053	0.855642	0.343961	0.279881	6.483223	0.037748	
0.697813	0.177318	0.842814	0.343661	0.280683	6.417658	0.038413	
0.708437	0.177390	0.842994	0.342948	0.279917	6.402174	0.038473	
0.716580	0.173996	0.873987	0.340076	0.273622	6.378961	0.037824	
0.720920	0.173153	0.880585	0.339627	0.272493	6.379959	0.037643	
0.729063	0.177018	0.863346	0.342950	0.276978	6.344518	0.038564	
0.739687	0.177306	0.841421	0.343930	0.281164	6.432344	0.038368	
0.747830	0.174349	0.848966	0.340912	0.278081	6.468404	0.037643	
0.752170	0.174528	0.848218	0.340264	0.277480	6.444413	0.037748	
0.760313	0.177965	0.843895	0.342266	0.278896	6.356151	0.038730	
0.770937	0.174013	0.863985	0.341604	0.276656	6.448786	0.037628	
0.779080	0.173793	0.886831	0.339818	0.271477	6.332816	0.037915	
0.783420	0.179701	0.866408	0.345553	0.278106	6.277653	0.039334	
0.791563	0.176947	0.841075	0.345902	0.283315	6.495405	0.038111	
0.802187	0.173964	0.843512	0.337386	0.275498	6.423924	0.037688	
0.810330	0.179382	0.856647	0.341770	0.275950	6.240580	0.039380	
0.814670	0.185389	0.874706	0.366102	0.295180	6.459874	0.039984	
0.822813	0.166867	0.831627	0.321372	0.263669	6.401093	0.036253	
0.833437	0.136569	0.111978	0.118329	0.117473	3.492009	0.040059	
0.841580	0.117749	-0.285776	0.064270	0.059462	2.053763	0.044878	
0.845920	0.135521	0.158549	0.131962	0.130259	3.898514	0.037688	
0.854063	0.131395	0.037973	0.107087	0.106992	3.303826	0.039636	
0.864687	0.126226	-0.043420	0.095418	0.095299	3.063383	0.039546	
0.872830	0.132051	0.043053	0.108034	0.107911	3.316015	0.039757	
0.877170	0.130389	0.024809	0.105817	0.105777	3.292037	0.039410	
0.885313	0.127892	-0.018366	0.098926	0.098904	3.137368	0.039591	
0.895937	0.129670	0.009742	0.103062	0.103056	3.225207	0.039591	
0.904080	0.129230	0.003174	0.102023	0.102022	3.203371	0.039591	
0.908420	0.128317	-0.012471	0.099893	0.099883	3.158247	0.039591	
0.916563	0.129241	0.003109	0.102045	0.102044	3.203902	0.039591	
0.927187	0.129052	-0.000093	0.101601	0.101601	3.194536	0.039591	
0.935330	0.128894	-0.002708	0.101233	0.101232	3.186718	0.039591	
0.939670	0.129152	0.001580	0.101833	0.101833	3.199519	0.039591	
0.947813	0.129077	0.000351	0.101661	0.101660	3.195774	0.039591	
0.958437	0.129029	-0.000466	0.101546	0.101546	3.193414	0.039591	
0.966580	0.129081	0.000416	0.101670	0.101670	3.196001	0.039591	
0.970920	0.129073	0.000280	0.101651	0.101651	3.195586	0.039591	
0.979063	0.129043	-0.000223	0.101580	0.101580	3.194120	0.039591	
0.989687	0.129062	0.000099	0.101625	0.101625	3.195063	0.039591	
0.997830	0.129060	0.000053	0.101619	0.101619	3.194926	0.039591	
