TITLE = "DG1DMBX32-P5RK5w100iv80"
VARIABLES = "x" "Density" "Velocity in x" "Energy" "Pressure" "Temperature" "Fugacity"
ZONE T = "Final Time 0.10"
I = 192, J = 1, K = 1, F = POINT

0.001055	1.000000	0.000000	1.000000	1.000000	4.000000	0.282095	
0.005294	1.000000	0.000000	1.000000	1.000000	4.000000	0.282095	
0.011897	1.000000	0.000000	1.000000	1.000000	4.000000	0.282095	
0.019353	1.000000	0.000000	1.000000	1.000000	3.999999	0.282095	
0.025956	1.000000	0.000000	1.000000	1.000000	3.999999	0.282095	
0.030195	1.000000	0.000000	1.000000	1.000000	3.999999	0.282095	
0.032305	1.000000	0.000000	1.000000	1.000000	3.999999	0.282095	
0.036544	1.000000	0.000000	1.000000	1.000000	3.999999	0.282095	
0.043147	1.000000	0.000000	1.000000	1.000000	3.999998	0.282095	
0.050603	1.000000	0.000000	0.999999	0.999999	3.999998	0.282095	
0.057206	1.000000	0.000000	0.999999	0.999999	3.999996	0.282095	
0.061445	1.000000	0.000001	0.999999	0.999999	3.999996	0.282095	
0.063555	1.000000	0.000001	0.999999	0.999999	3.999995	0.282095	
0.067794	1.000000	0.000001	0.999999	0.999999	3.999995	0.282095	
0.074397	1.000000	0.000001	0.999998	0.999998	3.999992	0.282095	
0.081853	1.000000	0.000001	0.999997	0.999997	3.999988	0.282095	
0.088456	1.000000	0.000002	0.999996	0.999996	3.999985	0.282095	
0.092695	0.999999	0.000002	0.999995	0.999995	3.999981	0.282095	
0.094805	0.999999	0.000003	0.999994	0.999994	3.999979	0.282095	
0.099044	0.999999	0.000003	0.999992	0.999992	3.999973	0.282096	
0.105647	0.999999	0.000005	0.999990	0.999990	3.999964	0.282096	
0.113103	0.999998	0.000007	0.999985	0.999985	3.999948	0.282096	
0.119706	0.999998	0.000010	0.999979	0.999979	3.999926	0.282097	
0.123945	0.999997	0.000013	0.999974	0.999974	3.999908	0.282097	
0.126055	0.999997	0.000014	0.999971	0.999971	3.999899	0.282097	
0.130294	0.999996	0.000017	0.999965	0.999965	3.999876	0.282098	
0.136897	0.999994	0.000025	0.999950	0.999950	3.999824	0.282099	
0.144353	0.999991	0.000037	0.999926	0.999926	3.999742	0.282101	
0.150956	0.999987	0.000053	0.999897	0.999897	3.999640	0.282104	
0.155195	0.999983	0.000067	0.999871	0.999871	3.999550	0.282106	
0.157305	0.999981	0.000075	0.999855	0.999855	3.999497	0.282107	
0.161544	0.999976	0.000095	0.999818	0.999818	3.999372	0.282110	
0.168147	0.999965	0.000136	0.999744	0.999744	3.999116	0.282116	
0.175603	0.999946	0.000205	0.999619	0.999619	3.998693	0.282126	
0.182206	0.999921	0.000295	0.999458	0.999458	3.998148	0.282138	
0.186445	0.999899	0.000372	0.999322	0.999322	3.997691	0.282148	
0.188555	0.999887	0.000417	0.999243	0.999243	3.997424	0.282154	
0.192794	0.999856	0.000527	0.999052	0.999052	3.996785	0.282167	
0.199397	0.999789	0.000758	0.998655	0.998655	3.995462	0.282196	
0.206853	0.999680	0.001135	0.998016	0.998015	3.993341	0.282239	
0.213456	0.999537	0.001617	0.997213	0.997211	3.990691	0.282293	
0.217695	0.999415	0.002026	0.996539	0.996537	3.988482	0.282337	
0.219805	0.999343	0.002265	0.996150	0.996147	3.987208	0.282361	
0.224044	0.999174	0.002823	0.995244	0.995240	3.984253	0.282418	
0.230647	0.998825	0.003956	0.993433	0.993425	3.978376	0.282528	
0.238103	0.998269	0.005733	0.990646	0.990630	3.969390	0.282690	
0.244706	0.997587	0.007875	0.987353	0.987322	3.958842	0.282873	
0.248945	0.997032	0.009594	0.984751	0.984705	3.950545	0.283013	
0.251055	0.996715	0.010567	0.983292	0.983237	3.945907	0.283089	
0.255294	0.995988	0.012784	0.980006	0.979925	3.935489	0.283257	
0.261897	0.994581	0.017011	0.973853	0.973710	3.916058	0.283557	
0.269353	0.992518	0.023102	0.965211	0.964946	3.888880	0.283956	
0.275956	0.990190	0.029851	0.955894	0.955453	3.859675	0.284360	
0.280195	0.988414	0.034929	0.949039	0.948437	3.838217	0.284642	
0.282305	0.987442	0.037685	0.945369	0.944668	3.826725	0.284789	
0.286544	0.985304	0.043705	0.937469	0.936528	3.801985	0.285095	
0.293147	0.981439	0.054440	0.923752	0.922297	3.758958	0.285598	
0.300603	0.976239	0.068644	0.906254	0.903954	3.703824	0.286191	
0.307206	0.970854	0.083120	0.889108	0.885755	3.649384	0.286727	
0.311445	0.966994	0.093373	0.877354	0.873138	3.611763	0.287071	
0.313555	0.964950	0.098764	0.871298	0.866592	3.592274	0.287240	
0.317794	0.960604	0.110153	0.858771	0.852943	3.551693	0.287576	
0.324397	0.953191	0.129370	0.838413	0.830437	3.484869	0.288079	
0.331853	0.943872	0.153204	0.814454	0.803377	3.404602	0.288606	
0.338456	0.934787	0.176141	0.792662	0.778161	3.329787	0.289021	
0.342695	0.928560	0.191720	0.778527	0.761462	3.280184	0.289258	
0.344805	0.925348	0.199715	0.771475	0.753021	3.255080	0.289367	
0.349044	0.918670	0.216252	0.757313	0.735832	3.203904	0.289564	
0.355647	0.907680	0.243230	0.735399	0.708550	3.122465	0.289807	
0.363103	0.894473	0.275320	0.711151	0.677250	3.028601	0.289982	
0.369706	0.882124	0.305037	0.690368	0.649329	2.944388	0.290039	
0.373945	0.873883	0.324718	0.677454	0.631382	2.890006	0.290021	
0.376055	0.869695	0.334677	0.671168	0.622462	2.862896	0.289994	
0.380294	0.861137	0.354952	0.658869	0.604621	2.808477	0.289909	
0.386897	0.847422	0.387226	0.640632	0.577100	2.724023	0.289681	
0.394353	0.831421	0.424540	0.621517	0.546591	2.629672	0.289265	
0.400956	0.816888	0.458129	0.606014	0.520289	2.547664	0.288746	
0.405195	0.807431	0.479841	0.596809	0.503855	2.496089	0.288337	
0.407305	0.802685	0.490691	0.592444	0.495809	2.470754	0.288108	
0.411544	0.793084	0.512530	0.584119	0.479952	2.420688	0.287591	
0.418147	0.778034	0.546487	0.572348	0.456169	2.345239	0.286635	
0.425603	0.761021	0.584432	0.560803	0.430835	2.264512	0.285321	
0.432206	0.746011	0.617439	0.552079	0.409877	2.197700	0.283914	
0.436445	0.736445	0.638199	0.547193	0.397217	2.157483	0.282873	
0.438555	0.731729	0.648351	0.544965	0.391171	2.138338	0.282317	
0.442794	0.722346	0.668362	0.540878	0.379540	2.101706	0.281115	
0.449397	0.707964	0.698438	0.535485	0.362807	2.049860	0.278981	
0.456853	0.692146	0.730479	0.530691	0.346027	1.999730	0.276145	
0.463456	0.678590	0.756834	0.527451	0.333103	1.963500	0.273223	
0.467695	0.670081	0.772731	0.525792	0.325735	1.944453	0.271115	
0.469805	0.665869	0.780378	0.525074	0.322321	1.936240	0.269982	
0.474044	0.657496	0.795107	0.523826	0.315993	1.922405	0.267544	
0.480647	0.644589	0.816446	0.522310	0.307474	1.908030	0.263278	
0.488103	0.629884	0.838542	0.521049	0.299597	1.902556	0.257642	
0.494706	0.616327	0.856758	0.520161	0.293958	1.907808	0.251750	
0.498945	0.607240	0.867860	0.519626	0.290945	1.916508	0.247474	
0.501055	0.602552	0.873283	0.519353	0.289593	1.922445	0.245184	
0.505294	0.592726	0.884045	0.518766	0.287148	1.937811	0.240228	
0.511897	0.576039	0.900712	0.517645	0.283980	1.971950	0.231435	
0.519353	0.554899	0.919581	0.515862	0.281243	2.027344	0.219875	
0.525956	0.533773	0.936688	0.513588	0.279426	2.093969	0.208112	
0.530195	0.518925	0.947942	0.511677	0.278525	2.146940	0.199811	
0.532305	0.511161	0.953613	0.510570	0.278151	2.176617	0.195475	
0.536544	0.494914	0.965036	0.508007	0.277551	2.243227	0.186431	
0.543147	0.467932	0.982923	0.503015	0.276971	2.367617	0.171574	
0.550603	0.435581	1.002701	0.495772	0.276803	2.541921	0.154139	
0.557206	0.406141	1.019004	0.487913	0.277051	2.728611	0.138718	
0.561445	0.387269	1.028460	0.482191	0.277378	2.864962	0.129086	
0.563555	0.377959	1.032798	0.479160	0.277581	2.937683	0.124413	
0.567794	0.359552	1.040627	0.472739	0.278058	3.093384	0.115337	
0.574397	0.332144	1.049933	0.462013	0.278942	3.359289	0.102242	
0.581853	0.303704	1.055485	0.449193	0.280023	3.688099	0.089222	
0.588456	0.281161	1.055564	0.437569	0.280932	3.996740	0.079346	
0.592695	0.268109	1.053149	0.430127	0.281444	4.198953	0.073819	
0.594805	0.262037	1.051235	0.426457	0.281669	4.299690	0.071297	
0.599044	0.250682	1.046057	0.419199	0.282046	4.500472	0.066668	
0.605647	0.235120	1.034727	0.408273	0.282407	4.804462	0.060519	
0.613103	0.220474	1.017959	0.396671	0.282439	5.124211	0.054950	
0.619706	0.209821	1.000549	0.387147	0.282121	5.378320	0.051045	
0.623945	0.203979	0.988522	0.381409	0.281748	5.525033	0.048960	
0.626055	0.201328	0.982362	0.378659	0.281514	5.593136	0.048029	
0.630294	0.196489	0.969756	0.373345	0.280954	5.719485	0.046354	
0.636897	0.190095	0.949839	0.365600	0.279849	5.888599	0.044197	
0.644353	0.184243	0.927335	0.357502	0.278283	6.041658	0.042290	
0.650956	0.180022	0.907611	0.350772	0.276625	6.146494	0.040967	
0.655195	0.177697	0.895068	0.346608	0.275427	6.199925	0.040264	
0.657305	0.176635	0.888848	0.344566	0.274790	6.222798	0.039949	
0.661544	0.174655	0.876335	0.340488	0.273423	6.262028	0.039378	
0.668147	0.171912	0.856620	0.334114	0.271040	6.306464	0.038622	
0.675603	0.169186	0.833613	0.326702	0.267917	6.334266	0.037926	
0.682206	0.166967	0.811944	0.319717	0.264680	6.340911	0.037409	
0.686445	0.165587	0.797054	0.314915	0.262317	6.336657	0.037113	
0.688555	0.164905	0.789280	0.312410	0.261045	6.332008	0.036973	
0.692794	0.163535	0.772840	0.307114	0.258276	6.317342	0.036709	
0.699397	0.161345	0.744458	0.298007	0.253297	6.279636	0.036326	
0.706853	0.158706	0.707164	0.286161	0.246478	6.212207	0.035925	
0.713456	0.156150	0.668233	0.273988	0.239124	6.125508	0.035596	
0.717695	0.154373	0.639709	0.265213	0.233626	6.053531	0.035399	
0.719805	0.153444	0.624343	0.260541	0.230634	6.012204	0.035307	
0.724044	0.151479	0.590907	0.250510	0.224064	5.916674	0.035135	
0.730647	0.148169	0.531642	0.233188	0.212249	5.729914	0.034923	
0.738103	0.144108	0.453976	0.211365	0.196515	5.454651	0.034812	
0.744706	0.140370	0.377470	0.190800	0.180800	5.152102	0.034890	
0.748945	0.138007	0.326517	0.177588	0.170231	4.933975	0.035053	
0.751055	0.136872	0.301274	0.171177	0.164966	4.821022	0.035170	
0.755294	0.134722	0.252047	0.158923	0.154643	4.591482	0.035472	
0.761897	0.131849	0.183186	0.142291	0.140079	4.249666	0.036085	
0.769353	0.129427	0.122098	0.127984	0.127019	3.925563	0.036855	
0.775956	0.127959	0.083488	0.119120	0.118674	3.709768	0.037482	
0.780195	0.127281	0.065216	0.114963	0.114692	3.604359	0.037825	
0.782305	0.127005	0.057659	0.113248	0.113037	3.560103	0.037976	
0.786544	0.126549	0.045090	0.110401	0.110272	3.485513	0.038243	
0.793147	0.126045	0.030942	0.107194	0.107133	3.399830	0.038568	
0.800603	0.125679	0.020449	0.104806	0.104780	3.334836	0.038828	
0.807206	0.125468	0.014306	0.103399	0.103386	3.296026	0.038991	
0.811445	0.125370	0.011433	0.102737	0.102728	3.277598	0.039070	
0.813555	0.125330	0.010244	0.102461	0.102454	3.269897	0.039103	
0.817794	0.125263	0.008235	0.101993	0.101989	3.256796	0.039161	
0.824397	0.125185	0.005887	0.101443	0.101441	3.241306	0.039230	
0.831853	0.125126	0.004068	0.101012	0.101011	3.229087	0.039286	
0.838456	0.125090	0.002955	0.100744	0.100744	3.221480	0.039321	
0.842695	0.125073	0.002411	0.100613	0.100612	3.217716	0.039338	
0.844805	0.125066	0.002179	0.100556	0.100556	3.216097	0.039346	
0.849044	0.125053	0.001782	0.100459	0.100459	3.213312	0.039359	
0.855647	0.125039	0.001313	0.100343	0.100342	3.209965	0.039375	
0.863103	0.125027	0.000931	0.100247	0.100247	3.207199	0.039388	
0.869706	0.125020	0.000687	0.100185	0.100185	3.205409	0.039397	
0.873945	0.125016	0.000569	0.100154	0.100154	3.204523	0.039401	
0.876055	0.125015	0.000518	0.100141	0.100141	3.204143	0.039403	
0.880294	0.125012	0.000429	0.100118	0.100118	3.203465	0.039406	
0.886897	0.125009	0.000318	0.100089	0.100089	3.202616	0.039411	
0.894353	0.125006	0.000230	0.100065	0.100065	3.201922	0.039414	
0.900956	0.125005	0.000172	0.100050	0.100050	3.201467	0.039416	
0.905195	0.125004	0.000143	0.100041	0.100041	3.201227	0.039418	
0.907305	0.125003	0.000130	0.100038	0.100038	3.201122	0.039418	
0.911544	0.125003	0.000108	0.100032	0.100032	3.200943	0.039419	
0.918147	0.125002	0.000082	0.100024	0.100024	3.200726	0.039420	
0.925603	0.125001	0.000059	0.100018	0.100018	3.200533	0.039421	
0.932206	0.125001	0.000044	0.100014	0.100014	3.200406	0.039422	
0.936445	0.125001	0.000037	0.100011	0.100011	3.200344	0.039422	
0.938555	0.125001	0.000034	0.100011	0.100011	3.200317	0.039422	
0.942794	0.125001	0.000028	0.100009	0.100009	3.200267	0.039423	
0.949397	0.125001	0.000021	0.100007	0.100007	3.200202	0.039423	
0.956853	0.125000	0.000015	0.100005	0.100005	3.200151	0.039423	
0.963456	0.125000	0.000012	0.100004	0.100004	3.200116	0.039423	
0.967695	0.125000	0.000010	0.100003	0.100003	3.200096	0.039423	
0.969805	0.125000	0.000009	0.100003	0.100003	3.200088	0.039423	
0.974044	0.125000	0.000007	0.100002	0.100002	3.200074	0.039424	
0.980647	0.125000	0.000006	0.100002	0.100002	3.200058	0.039424	
0.988103	0.125000	0.000004	0.100001	0.100001	3.200042	0.039424	
0.994706	0.125000	0.000003	0.100001	0.100001	3.200032	0.039424	
0.998945	0.125000	0.000003	0.100001	0.100001	3.200027	0.039424	
