TITLE = "DG1DBEX32-P4RK6w10000iv80"
VARIABLES = "x" "Density" "Velocity in x" "Energy" "Pressure" "Temperature" "Fugacity"
ZONE T = "Final Time 0.10"
I = 160, J = 1, K = 1, F = POINT

0.001466	1.305799	0.000000	1.136051	1.136051	3.940877	0.291703	
0.007211	1.305799	0.000001	1.136051	1.136051	3.940876	0.291703	
0.015625	1.305800	-0.000001	1.136053	1.136053	3.940882	0.291703	
0.024039	1.305799	0.000001	1.136051	1.136051	3.940877	0.291703	
0.029784	1.305798	0.000003	1.136048	1.136048	3.940868	0.291703	
0.032716	1.305800	-0.000001	1.136053	1.136053	3.940882	0.291703	
0.038461	1.305801	-0.000003	1.136056	1.136056	3.940888	0.291703	
0.046875	1.305798	0.000003	1.136048	1.136048	3.940869	0.291703	
0.055289	1.305799	0.000000	1.136052	1.136052	3.940878	0.291703	
0.061034	1.305806	-0.000011	1.136068	1.136068	3.940917	0.291703	
0.063966	1.305800	-0.000002	1.136054	1.136054	3.940884	0.291703	
0.069711	1.305794	0.000010	1.136037	1.136037	3.940845	0.291703	
0.078125	1.305802	-0.000005	1.136059	1.136059	3.940895	0.291703	
0.086539	1.305806	-0.000011	1.136068	1.136068	3.940916	0.291703	
0.092284	1.305780	0.000033	1.136003	1.136003	3.940763	0.291703	
0.095216	1.305784	0.000027	1.136012	1.136012	3.940787	0.291703	
0.100961	1.305813	-0.000024	1.136087	1.136087	3.940961	0.291703	
0.109375	1.305806	-0.000011	1.136068	1.136068	3.940917	0.291703	
0.117789	1.305762	0.000065	1.135954	1.135954	3.940652	0.291703	
0.123534	1.305822	-0.000040	1.136112	1.136112	3.941018	0.291703	
0.126466	1.305869	-0.000122	1.136233	1.136233	3.941299	0.291703	
0.132211	1.305805	-0.000010	1.136067	1.136067	3.940915	0.291703	
0.140625	1.305728	0.000124	1.135867	1.135867	3.940451	0.291703	
0.149039	1.305887	-0.000154	1.136281	1.136281	3.941408	0.291703	
0.154784	1.305930	-0.000228	1.136391	1.136390	3.941670	0.291703	
0.157716	1.305735	0.000111	1.135886	1.135886	3.940490	0.291703	
0.163461	1.305615	0.000323	1.135571	1.135571	3.939767	0.291703	
0.171875	1.305927	-0.000224	1.136385	1.136385	3.941647	0.291703	
0.180289	1.306008	-0.000362	1.136591	1.136591	3.942136	0.291703	
0.186034	1.305343	0.000791	1.134873	1.134873	3.938126	0.291703	
0.188966	1.305235	0.000992	1.134576	1.134575	3.937471	0.291703	
0.194711	1.305895	-0.000168	1.136303	1.136303	3.941455	0.291703	
0.203125	1.306429	-0.001101	1.137694	1.137693	3.944683	0.291703	
0.211539	1.305128	0.001175	1.134302	1.134301	3.936828	0.291703	
0.217284	1.304669	0.001970	1.133123	1.133120	3.934056	0.291703	
0.220216	1.305604	0.000344	1.135536	1.135536	3.939698	0.291703	
0.225961	1.307082	-0.002241	1.139404	1.139400	3.948624	0.291703	
0.234375	1.306240	-0.000770	1.137194	1.137193	3.943537	0.291703	
0.242789	1.303821	0.003455	1.130923	1.130916	3.928948	0.291703	
0.248534	1.305661	0.000267	1.135673	1.135673	3.940044	0.291703	
0.251466	1.307506	-0.003011	1.140537	1.140531	3.951187	0.291703	
0.257211	1.309279	-0.006080	1.145161	1.145137	3.961909	0.291703	
0.265625	1.303407	0.004186	1.129818	1.129806	3.926452	0.291703	
0.274039	1.287220	0.032522	1.088924	1.088243	3.829533	0.291703	
0.279784	1.273553	0.056423	1.055966	1.053939	3.748647	0.291703	
0.282716	1.266215	0.069227	1.038883	1.035849	3.705569	0.291703	
0.288461	1.251622	0.094801	1.006057	1.000432	3.620650	0.291703	
0.296875	1.229800	0.132968	0.959888	0.949016	3.495498	0.291703	
0.305289	1.207621	0.171783	0.916407	0.898589	3.370556	0.291703	
0.311034	1.192278	0.198720	0.888198	0.864657	3.285018	0.291718	
0.313966	1.184345	0.212525	0.874368	0.847621	3.241877	0.291703	
0.319711	1.168771	0.239739	0.848214	0.814627	3.157178	0.291703	
0.328125	1.145821	0.279908	0.812461	0.767574	3.034409	0.291703	
0.336539	1.122685	0.320409	0.779640	0.722012	2.913106	0.291703	
0.342284	1.107011	0.348119	0.758883	0.691806	2.830825	0.291764	
0.345216	1.098822	0.362362	0.748793	0.676651	2.789471	0.291749	
0.350961	1.082666	0.390410	0.730029	0.647519	2.709124	0.291703	
0.359375	1.059110	0.431626	0.704824	0.606167	2.592521	0.291703	
0.367789	1.035369	0.473134	0.682201	0.566314	2.477598	0.291703	
0.373534	1.019527	0.501446	0.668217	0.540037	2.399487	0.291839	
0.376466	1.011328	0.516008	0.661516	0.526876	2.360104	0.291885	
0.382211	0.994299	0.545037	0.649237	0.501551	2.284935	0.291703	
0.390625	0.970073	0.587418	0.633151	0.465785	2.174949	0.291703	
0.399039	0.945976	0.629708	0.619361	0.431806	2.067686	0.291734	
0.404784	0.929892	0.658379	0.611126	0.409589	1.995321	0.291885	
0.407716	0.921868	0.672826	0.607278	0.398615	1.958949	0.292005	
0.413461	0.904637	0.702206	0.600447	0.377412	1.889917	0.291794	
0.421875	0.879997	0.744910	0.591813	0.347662	1.789556	0.291718	
0.430289	0.856424	0.786438	0.584988	0.320146	1.693385	0.291824	
0.436034	0.840271	0.814686	0.581301	0.302452	1.630543	0.291794	
0.438966	0.832399	0.828620	0.579732	0.293965	1.599711	0.291824	
0.444711	0.819832	0.851484	0.577331	0.280132	1.548066	0.292096	
0.453125	0.812818	0.862577	0.576373	0.273989	1.526956	0.291703	
0.461539	0.818747	0.851157	0.577558	0.280980	1.554267	0.291341	
0.467284	0.819557	0.850515	0.577669	0.281246	1.554239	0.291567	
0.470216	0.817781	0.854980	0.577323	0.278427	1.542377	0.291945	
0.475961	0.816250	0.857656	0.577013	0.276807	1.536404	0.291960	
0.484375	0.816052	0.854269	0.576584	0.278817	1.547140	0.291114	
0.492789	0.814690	0.855045	0.576936	0.279125	1.551045	0.290450	
0.498534	0.809896	0.863676	0.576871	0.274806	1.535712	0.290238	
0.501466	0.810853	0.863169	0.577111	0.275044	1.535448	0.290525	
0.507211	0.814356	0.858073	0.577929	0.278128	1.546265	0.290706	
0.515625	0.816015	0.854561	0.578231	0.280274	1.554852	0.290540	
0.524039	0.814297	0.859290	0.577407	0.276776	1.539263	0.291205	
0.529784	0.813911	0.861871	0.577133	0.274838	1.529643	0.291809	
0.532716	0.816785	0.857307	0.577453	0.277295	1.538008	0.291990	
0.538461	0.823056	0.850717	0.578547	0.280716	1.546046	0.293138	
0.546875	0.816012	0.853818	0.575977	0.278539	1.545753	0.291205	
0.555289	0.803349	0.859933	0.572276	0.275244	1.548661	0.287459	
0.561034	0.813534	0.852196	0.575146	0.279737	1.555965	0.289770	
0.563966	0.822019	0.848998	0.577273	0.281018	1.549327	0.292610	
0.569711	0.842661	0.856466	0.587195	0.278135	1.503037	0.301808	
0.578125	0.730919	0.864881	0.547153	0.273782	1.668866	0.258881	
0.586539	0.440987	0.868088	0.443791	0.277632	2.654633	0.137605	
0.592284	0.252301	0.876959	0.374898	0.277881	4.510556	0.063970	
0.595216	0.203098	0.863765	0.355618	0.279854	5.607207	0.046781	
0.600961	0.171517	0.853729	0.342245	0.279740	6.609220	0.036661	
0.609375	0.177289	0.839430	0.342767	0.280304	6.410337	0.038428	
0.617789	0.177964	0.852048	0.341777	0.277178	6.320511	0.038836	
0.623534	0.174800	0.850858	0.340815	0.277541	6.438010	0.037824	
0.626466	0.176252	0.852267	0.341177	0.277165	6.376766	0.038307	
0.632211	0.176885	0.858771	0.342128	0.276902	6.350341	0.038519	
0.640625	0.175110	0.867073	0.344507	0.278681	6.455606	0.037839	
0.649039	0.175673	0.861074	0.345075	0.279948	6.460015	0.037945	
0.654784	0.177301	0.852454	0.344557	0.280137	6.406070	0.038443	
0.657716	0.178217	0.847522	0.344391	0.280385	6.379292	0.038715	
0.663461	0.177982	0.848628	0.344517	0.280429	6.393249	0.038624	
0.671875	0.174986	0.868157	0.345170	0.279227	6.472971	0.037764	
0.680289	0.174829	0.874360	0.344371	0.277543	6.434833	0.037839	
0.686034	0.176850	0.864382	0.344221	0.278153	6.378639	0.038428	
0.688966	0.177941	0.860047	0.344144	0.278334	6.344283	0.038760	
0.694711	0.176937	0.855619	0.344380	0.279614	6.410791	0.038353	
0.703125	0.175123	0.853300	0.343742	0.279986	6.483064	0.037764	
0.711539	0.176562	0.853064	0.340449	0.276205	6.342548	0.038473	
0.717284	0.177440	0.852572	0.338834	0.274345	6.273367	0.038866	
0.720216	0.176643	0.849726	0.339372	0.275601	6.327866	0.038534	
0.725961	0.172872	0.856623	0.338535	0.275108	6.454670	0.037371	
0.734375	0.176045	0.861386	0.339661	0.274349	6.320741	0.038428	
0.742789	0.178277	0.852372	0.343008	0.278246	6.332649	0.038866	
0.748534	0.174497	0.846684	0.343542	0.280996	6.527697	0.037507	
0.751466	0.171623	0.845179	0.341890	0.280593	6.628601	0.036631	
0.757211	0.177507	0.838646	0.341779	0.279356	6.384814	0.038549	
0.765625	0.178231	0.854566	0.341220	0.276141	6.284101	0.039002	
0.774039	0.171489	0.866611	0.340282	0.275887	6.523960	0.036887	
0.779784	0.173545	0.854781	0.343156	0.279756	6.537544	0.037280	
0.782716	0.180217	0.849046	0.344436	0.279478	6.293825	0.039395	
0.788461	0.181455	0.884977	0.348150	0.277093	6.198289	0.039954	
0.796875	0.169177	0.850379	0.337102	0.275932	6.607794	0.036178	
0.805289	0.180779	0.824668	0.347497	0.286025	6.418943	0.039138	
0.811034	0.184986	0.927052	0.353136	0.273645	6.008334	0.041328	
0.813966	0.185534	0.930295	0.384251	0.303966	6.649714	0.039455	
0.819711	0.146523	0.497741	0.226885	0.208734	5.769794	0.033595	
0.828125	0.126260	-0.087811	0.076906	0.076419	2.459536	0.044002	
0.836539	0.134080	0.103329	0.123806	0.123091	3.723436	0.038141	
0.842284	0.133404	0.055488	0.107596	0.107391	3.268241	0.040437	
0.845216	0.117801	-0.203473	0.075292	0.072853	2.509681	0.040739	
0.850961	0.131528	0.048693	0.109254	0.109098	3.365717	0.039319	
0.859375	0.128810	-0.003874	0.101011	0.101010	3.182593	0.039591	
0.867789	0.128207	-0.010739	0.099967	0.099960	3.162774	0.039531	
0.873534	0.131301	0.034792	0.106461	0.106381	3.288743	0.039697	
0.876466	0.128522	-0.005338	0.101267	0.101265	3.195912	0.039425	
0.882211	0.128425	-0.008515	0.100287	0.100283	3.168559	0.039561	
0.890625	0.129306	0.005748	0.102363	0.102361	3.212168	0.039561	
0.899039	0.128720	-0.003906	0.100981	0.100980	3.183109	0.039561	
0.904784	0.128873	-0.001397	0.101341	0.101341	3.190677	0.039561	
0.907716	0.129336	0.006355	0.102427	0.102424	3.213673	0.039561	
0.913461	0.128865	-0.001502	0.101324	0.101324	3.190310	0.039561	
0.921875	0.128964	0.000145	0.101552	0.101552	3.195209	0.039561	
0.930289	0.128987	0.000534	0.101608	0.101608	3.196355	0.039561	
0.936034	0.128873	-0.001371	0.101342	0.101342	3.190695	0.039561	
0.938966	0.128953	-0.000053	0.101525	0.101525	3.194664	0.039561	
0.944711	0.128984	0.000494	0.101602	0.101602	3.196216	0.039561	
0.953125	0.128938	-0.000287	0.101493	0.101493	3.193936	0.039561	
0.961539	0.128965	0.000173	0.101557	0.101557	3.195279	0.039561	
0.967284	0.128963	0.000127	0.101551	0.101551	3.195159	0.039561	
0.970216	0.128936	-0.000322	0.101488	0.101488	3.193816	0.039561	
0.975961	0.128959	0.000061	0.101541	0.101541	3.194959	0.039561	
0.984375	0.128955	0.000000	0.101533	0.101533	3.194773	0.039561	
0.992789	0.128954	-0.000030	0.101529	0.101529	3.194688	0.039561	
0.998534	0.128959	0.000065	0.101542	0.101542	3.194964	0.039561	
