TITLE = "DG1DMBX32-P4RK4w1000iv80"
VARIABLES = "x" "Density" "Velocity in x" "Energy" "Pressure" "Temperature" "Fugacity"
ZONE T = "Final Time 0.10"
I = 160, J = 1, K = 1, F = POINT

0.001466	1.000000	-0.000000	1.000000	1.000000	4.000000	0.282095	
0.007211	1.000000	-0.000000	1.000000	1.000000	4.000000	0.282095	
0.015625	1.000000	-0.000000	1.000000	1.000000	4.000000	0.282095	
0.024039	1.000000	-0.000000	1.000000	1.000000	4.000000	0.282095	
0.029784	1.000000	-0.000000	1.000000	1.000000	4.000000	0.282095	
0.032716	1.000000	-0.000000	1.000000	1.000000	4.000000	0.282095	
0.038461	1.000000	-0.000000	1.000000	1.000000	4.000000	0.282095	
0.046875	1.000000	-0.000000	1.000000	1.000000	4.000000	0.282095	
0.055289	1.000000	-0.000000	1.000000	1.000000	4.000000	0.282095	
0.061034	1.000000	0.000000	1.000000	1.000000	4.000000	0.282095	
0.063966	1.000000	0.000000	1.000000	1.000000	4.000000	0.282095	
0.069711	1.000000	0.000000	1.000000	1.000000	4.000000	0.282095	
0.078125	1.000000	-0.000000	1.000000	1.000000	4.000000	0.282095	
0.086539	1.000000	0.000000	1.000000	1.000000	4.000000	0.282095	
0.092284	1.000000	0.000000	1.000000	1.000000	4.000000	0.282095	
0.095216	1.000000	-0.000000	1.000000	1.000000	4.000000	0.282095	
0.100961	1.000000	-0.000000	1.000000	1.000000	4.000000	0.282095	
0.109375	1.000000	0.000000	1.000000	1.000000	4.000000	0.282095	
0.117789	1.000000	0.000000	1.000000	1.000000	4.000000	0.282095	
0.123534	1.000000	-0.000000	1.000000	1.000000	4.000000	0.282095	
0.126466	1.000000	-0.000000	1.000000	1.000000	4.000000	0.282095	
0.132211	1.000000	0.000000	1.000000	1.000000	4.000000	0.282095	
0.140625	1.000000	0.000000	1.000000	1.000000	4.000000	0.282095	
0.149039	1.000000	0.000000	1.000000	1.000000	4.000000	0.282095	
0.154784	1.000000	-0.000000	1.000000	1.000000	4.000000	0.282095	
0.157716	1.000000	-0.000000	1.000000	1.000000	4.000001	0.282095	
0.163461	1.000000	0.000001	0.999999	0.999999	3.999997	0.282095	
0.171875	0.999999	0.000002	0.999997	0.999997	3.999992	0.282095	
0.180289	0.999995	0.000015	0.999978	0.999978	3.999935	0.282096	
0.186034	0.999982	0.000052	0.999926	0.999926	3.999779	0.282097	
0.188966	0.999966	0.000094	0.999869	0.999869	3.999609	0.282099	
0.194711	0.999906	0.000259	0.999644	0.999644	3.998953	0.282105	
0.203125	0.999653	0.000943	0.998724	0.998724	3.996284	0.282128	
0.211539	0.998939	0.002833	0.996229	0.996225	3.989134	0.282179	
0.217284	0.997959	0.005402	0.992892	0.992877	3.979631	0.282239	
0.220216	0.997234	0.007283	0.990476	0.990450	3.972787	0.282276	
0.225961	0.995269	0.012347	0.984060	0.983984	3.954646	0.282365	
0.234375	0.990848	0.023598	0.970162	0.969886	3.915375	0.282518	
0.242789	0.984412	0.039799	0.950822	0.950042	3.860342	0.282676	
0.248534	0.978869	0.053633	0.934843	0.933435	3.814342	0.282774	
0.251466	0.975709	0.061490	0.925968	0.924123	3.788518	0.282820	
0.257211	0.968920	0.078319	0.907424	0.904453	3.733858	0.282901	
0.265625	0.957730	0.105925	0.878294	0.872921	3.645791	0.282991	
0.274039	0.945332	0.136393	0.847893	0.839100	3.550497	0.283051	
0.279784	0.936316	0.158503	0.826925	0.815163	3.482429	0.283078	
0.282716	0.931568	0.170130	0.816256	0.802774	3.446980	0.283087	
0.288461	0.922021	0.193486	0.795546	0.778287	3.376439	0.283098	
0.296875	0.907553	0.228845	0.765977	0.742213	3.271270	0.283099	
0.305289	0.892622	0.265294	0.737659	0.706247	3.164820	0.283086	
0.311034	0.882213	0.290688	0.719178	0.681905	3.091792	0.283070	
0.313966	0.876846	0.303778	0.710040	0.669582	3.054503	0.283060	
0.319711	0.866231	0.329658	0.692734	0.645666	2.981495	0.283036	
0.328125	0.850491	0.368021	0.668881	0.611286	2.874980	0.282994	
0.336539	0.834562	0.406829	0.646849	0.577785	2.769288	0.282943	
0.342284	0.823597	0.433534	0.632863	0.555465	2.697749	0.282904	
0.345216	0.817981	0.447213	0.626058	0.544260	2.661480	0.282883	
0.350961	0.806938	0.474104	0.613368	0.522678	2.590922	0.282838	
0.359375	0.790703	0.513628	0.596314	0.492015	2.488998	0.282765	
0.367789	0.774434	0.553226	0.581042	0.462531	2.389003	0.282684	
0.373534	0.763330	0.580243	0.571613	0.443113	2.322000	0.282622	
0.376466	0.757674	0.594003	0.567107	0.433439	2.288259	0.282589	
0.382211	0.746628	0.620872	0.558866	0.414960	2.223116	0.282519	
0.390625	0.730598	0.659846	0.548167	0.389117	2.130402	0.282405	
0.399039	0.714875	0.698047	0.539040	0.364872	2.041597	0.282273	
0.404784	0.704421	0.723421	0.533680	0.349355	1.983784	0.282169	
0.407716	0.699212	0.736053	0.531211	0.341803	1.955361	0.282111	
0.413461	0.689325	0.760003	0.526883	0.327804	1.902177	0.281983	
0.421875	0.675938	0.792339	0.521747	0.309570	1.831943	0.281758	
0.430289	0.664475	0.819852	0.518002	0.294686	1.773950	0.281471	
0.436034	0.658181	0.834825	0.516209	0.286855	1.743321	0.281243	
0.438966	0.655521	0.841090	0.515513	0.283644	1.730804	0.281117	
0.444711	0.651469	0.850550	0.514528	0.278880	1.712314	0.280884	
0.453125	0.647898	0.858623	0.513755	0.274929	1.697360	0.280572	
0.461539	0.646350	0.861884	0.513466	0.273397	1.691946	0.280350	
0.467284	0.645890	0.862686	0.513393	0.273048	1.690992	0.280229	
0.470216	0.645764	0.862830	0.513378	0.273000	1.691022	0.280172	
0.475961	0.645603	0.862918	0.513357	0.272990	1.691378	0.280072	
0.484375	0.645409	0.862918	0.513323	0.273029	1.692128	0.279926	
0.492789	0.645174	0.862919	0.513278	0.273070	1.693001	0.279752	
0.498534	0.645018	0.862847	0.513248	0.273139	1.693836	0.279616	
0.501466	0.644934	0.862801	0.513230	0.273177	1.694297	0.279541	
0.507211	0.644723	0.862759	0.513180	0.273229	1.695173	0.279377	
0.515625	0.644327	0.862788	0.513079	0.273259	1.696402	0.279105	
0.524039	0.643825	0.862842	0.512954	0.273291	1.697923	0.278762	
0.529784	0.643406	0.862820	0.512847	0.273352	1.699406	0.278459	
0.532716	0.643157	0.862824	0.512779	0.273375	1.700207	0.278286	
0.538461	0.642243	0.862980	0.512548	0.273397	1.702766	0.277682	
0.546875	0.639615	0.863467	0.511826	0.273386	1.709689	0.275985	
0.555289	0.631846	0.865098	0.509818	0.273382	1.730689	0.270974	
0.561034	0.618185	0.867725	0.506113	0.273383	1.768940	0.262233	
0.563966	0.606429	0.870006	0.502797	0.273292	1.802629	0.254831	
0.569711	0.571690	0.876186	0.492662	0.273218	1.911647	0.233282	
0.578125	0.490075	0.889284	0.466853	0.273072	2.228814	0.185204	
0.586539	0.394390	0.902452	0.433946	0.273346	2.772340	0.133637	
0.592284	0.334708	0.908899	0.411774	0.273523	3.268795	0.104447	
0.595216	0.308947	0.910362	0.401688	0.273667	3.543230	0.092600	
0.600961	0.266983	0.910618	0.384528	0.273833	4.102638	0.074366	
0.609375	0.224747	0.904410	0.365917	0.274000	4.876598	0.057420	
0.617789	0.199434	0.893898	0.353728	0.274049	5.496527	0.047993	
0.623534	0.188787	0.886410	0.348231	0.274064	5.806839	0.044200	
0.626466	0.184805	0.882814	0.346083	0.274068	5.932044	0.042809	
0.632211	0.179167	0.876750	0.342933	0.274071	6.118773	0.040865	
0.640625	0.174448	0.870401	0.340130	0.274049	6.283806	0.039263	
0.649039	0.172199	0.866869	0.338680	0.273980	6.364271	0.038511	
0.654784	0.171425	0.865663	0.338147	0.273916	6.391520	0.038256	
0.657716	0.171180	0.865268	0.337971	0.273891	6.400048	0.038176	
0.663461	0.170878	0.864832	0.337753	0.273850	6.410428	0.038077	
0.671875	0.170693	0.864558	0.337635	0.273842	6.417179	0.038016	
0.680289	0.170660	0.864325	0.337666	0.273920	6.420258	0.038000	
0.686034	0.170676	0.864085	0.337734	0.274017	6.421928	0.037998	
0.688966	0.170690	0.863978	0.337770	0.274064	6.422500	0.038000	
0.694711	0.170715	0.863916	0.337826	0.274119	6.422861	0.038004	
0.703125	0.170737	0.864198	0.337865	0.274109	6.421799	0.038012	
0.711539	0.170743	0.864756	0.337886	0.274045	6.420059	0.038019	
0.717284	0.170748	0.865080	0.337920	0.274029	6.419474	0.038022	
0.720216	0.170753	0.865194	0.337946	0.274036	6.419476	0.038023	
0.725961	0.170766	0.865377	0.338001	0.274059	6.419510	0.038026	
0.734375	0.170798	0.865448	0.338126	0.274162	6.420707	0.038029	
0.742789	0.170845	0.865128	0.338325	0.274390	6.424299	0.038029	
0.748534	0.170888	0.864740	0.338472	0.274580	6.427121	0.038030	
0.751466	0.170898	0.864892	0.338467	0.274548	6.426026	0.038036	
0.757211	0.170901	0.865692	0.338470	0.274432	6.423166	0.038045	
0.765625	0.170887	0.866502	0.338593	0.274440	6.423905	0.038039	
0.774039	0.170882	0.866901	0.338667	0.274456	6.424460	0.038037	
0.779784	0.170870	0.867977	0.338671	0.274305	6.421378	0.038043	
0.782716	0.170934	0.866696	0.338841	0.274642	6.426854	0.038041	
0.788461	0.171023	0.867353	0.339100	0.274770	6.426503	0.038062	
0.796875	0.170754	0.866870	0.338692	0.274534	6.431090	0.037989	
0.805289	0.170782	0.859760	0.337804	0.274684	6.433542	0.037988	
0.811034	0.170541	0.855592	0.335187	0.272765	6.397655	0.038040	
0.813966	0.169445	0.847621	0.329891	0.269021	6.350631	0.037935	
0.819711	0.168713	0.842260	0.330073	0.270230	6.406847	0.037606	
0.828125	0.156136	0.646783	0.262673	0.230015	5.892694	0.036289	
0.836539	0.133122	0.182071	0.138164	0.135957	4.085188	0.037159	
0.842284	0.120825	-0.080604	0.087666	0.087273	2.889233	0.040104	
0.845216	0.124092	-0.017655	0.096960	0.096940	3.124780	0.039606	
0.850961	0.126665	0.030190	0.104775	0.104717	3.306909	0.039298	
0.859375	0.124416	-0.008900	0.098853	0.098848	3.177981	0.039376	
0.867789	0.125090	-0.000072	0.099807	0.099807	3.191530	0.039505	
0.873534	0.125523	0.010347	0.101574	0.101567	3.236607	0.039364	
0.876466	0.124713	-0.003965	0.099673	0.099672	3.196852	0.039353	
0.882211	0.124927	-0.001825	0.099648	0.099648	3.190615	0.039459	
0.890625	0.125052	0.001066	0.100174	0.100173	3.204223	0.039414	
0.899039	0.124968	-0.000555	0.099925	0.099925	3.198441	0.039423	
0.904784	0.124994	-0.000357	0.099923	0.099923	3.197686	0.039436	
0.907716	0.125034	0.000719	0.100105	0.100105	3.202482	0.039419	
0.913461	0.124996	-0.000046	0.100000	0.100000	3.200096	0.039422	
0.921875	0.124999	-0.000044	0.099991	0.099991	3.199761	0.039425	
0.930289	0.125003	0.000061	0.100009	0.100009	3.200230	0.039423	
0.936034	0.124997	-0.000053	0.099994	0.099994	3.199896	0.039424	
0.938966	0.124999	-0.000037	0.099993	0.099993	3.199804	0.039425	
0.944711	0.125001	0.000019	0.100003	0.100003	3.200064	0.039424	
0.953125	0.125000	-0.000004	0.099999	0.099999	3.199991	0.039424	
0.961539	0.125000	-0.000001	0.100000	0.100000	3.199991	0.039424	
0.967284	0.125000	0.000007	0.100001	0.100001	3.200025	0.039424	
0.970216	0.125000	-0.000002	0.100000	0.100000	3.199999	0.039424	
0.975961	0.125000	-0.000001	0.100000	0.100000	3.199994	0.039424	
0.984375	0.125000	0.000001	0.100000	0.100000	3.200002	0.039424	
0.992789	0.125000	-0.000000	0.100000	0.100000	3.199999	0.039424	
0.998534	0.125000	-0.000000	0.100000	0.100000	3.199998	0.039424	
