TITLE = "DG1DBEX64-P4RK4w10000iv80"
VARIABLES = "x" "Density" "Velocity in x" "Energy" "Pressure" "Temperature" "Fugacity"
ZONE T = "Final Time 0.10"
I = 320, J = 1, K = 1, F = POINT

0.000733	1.283129	-0.000000	1.127366	1.127366	3.970002	0.286915	
0.003606	1.283129	-0.000000	1.127366	1.127366	3.970002	0.286915	
0.007813	1.283129	-0.000000	1.127366	1.127366	3.970002	0.286915	
0.012019	1.283129	-0.000000	1.127366	1.127366	3.970002	0.286915	
0.014892	1.283129	-0.000000	1.127366	1.127366	3.970002	0.286915	
0.016358	1.283129	-0.000000	1.127366	1.127366	3.970002	0.286915	
0.019231	1.283129	-0.000000	1.127366	1.127366	3.970002	0.286915	
0.023438	1.283129	-0.000000	1.127366	1.127366	3.970002	0.286915	
0.027644	1.283129	-0.000000	1.127366	1.127366	3.970002	0.286915	
0.030517	1.283129	-0.000000	1.127366	1.127366	3.970002	0.286915	
0.031983	1.283129	-0.000000	1.127366	1.127366	3.970002	0.286915	
0.034856	1.283129	-0.000000	1.127366	1.127366	3.970002	0.286915	
0.039063	1.283129	-0.000000	1.127366	1.127366	3.970002	0.286915	
0.043269	1.283129	-0.000000	1.127366	1.127366	3.970002	0.286915	
0.046142	1.283130	-0.000000	1.127366	1.127366	3.970002	0.286915	
0.047608	1.283129	-0.000000	1.127366	1.127366	3.970002	0.286915	
0.050481	1.283129	-0.000000	1.127366	1.127366	3.970002	0.286915	
0.054688	1.283129	-0.000000	1.127366	1.127366	3.970002	0.286915	
0.058894	1.283130	-0.000000	1.127366	1.127366	3.970002	0.286915	
0.061767	1.283129	0.000000	1.127366	1.127366	3.970002	0.286915	
0.063233	1.283129	0.000000	1.127366	1.127366	3.970002	0.286915	
0.066106	1.283130	-0.000000	1.127366	1.127366	3.970002	0.286915	
0.070313	1.283130	-0.000000	1.127366	1.127366	3.970002	0.286915	
0.074519	1.283129	0.000000	1.127366	1.127366	3.970002	0.286915	
0.077392	1.283130	-0.000000	1.127366	1.127366	3.970002	0.286915	
0.078858	1.283130	-0.000000	1.127366	1.127366	3.970002	0.286915	
0.081731	1.283130	-0.000000	1.127366	1.127366	3.970002	0.286915	
0.085938	1.283129	0.000000	1.127366	1.127366	3.970002	0.286915	
0.090144	1.283130	-0.000000	1.127366	1.127366	3.970002	0.286915	
0.093017	1.283130	-0.000000	1.127366	1.127366	3.970002	0.286915	
0.094483	1.283129	0.000000	1.127366	1.127366	3.970002	0.286915	
0.097356	1.283129	0.000000	1.127366	1.127366	3.970002	0.286915	
0.101563	1.283130	-0.000000	1.127366	1.127366	3.970002	0.286915	
0.105769	1.283129	0.000000	1.127366	1.127366	3.970002	0.286915	
0.108642	1.283129	0.000000	1.127366	1.127366	3.970001	0.286915	
0.110108	1.283130	0.000000	1.127366	1.127366	3.970002	0.286915	
0.112981	1.283130	-0.000000	1.127366	1.127366	3.970003	0.286915	
0.117188	1.283129	0.000000	1.127366	1.127366	3.970001	0.286915	
0.121394	1.283129	0.000000	1.127366	1.127366	3.970001	0.286915	
0.124267	1.283130	-0.000001	1.127367	1.127367	3.970004	0.286915	
0.125733	1.283130	-0.000001	1.127367	1.127367	3.970004	0.286915	
0.128606	1.283129	0.000000	1.127365	1.127365	3.970001	0.286915	
0.132813	1.283129	0.000000	1.127365	1.127365	3.970000	0.286915	
0.137019	1.283130	-0.000001	1.127368	1.127368	3.970006	0.286915	
0.139892	1.283130	-0.000000	1.127366	1.127366	3.970002	0.286915	
0.141358	1.283128	0.000002	1.127363	1.127363	3.969995	0.286915	
0.144231	1.283129	0.000001	1.127365	1.127365	3.969998	0.286915	
0.148438	1.283131	-0.000002	1.127370	1.127370	3.970010	0.286915	
0.152644	1.283129	0.000001	1.127364	1.127364	3.969998	0.286915	
0.155517	1.283126	0.000006	1.127358	1.127358	3.969982	0.286915	
0.156983	1.283129	0.000001	1.127364	1.127364	3.969997	0.286915	
0.159856	1.283133	-0.000006	1.127374	1.127374	3.970021	0.286915	
0.164063	1.283129	0.000001	1.127365	1.127365	3.970000	0.286915	
0.168269	1.283124	0.000010	1.127351	1.127351	3.969967	0.286915	
0.171142	1.283134	-0.000008	1.127378	1.127378	3.970030	0.286915	
0.172608	1.283140	-0.000019	1.127393	1.127393	3.970066	0.286915	
0.175481	1.283132	-0.000004	1.127371	1.127371	3.970015	0.286915	
0.179688	1.283118	0.000021	1.127336	1.127336	3.969930	0.286915	
0.183894	1.283138	-0.000015	1.127388	1.127388	3.970053	0.286915	
0.186767	1.283154	-0.000043	1.127429	1.127429	3.970153	0.286915	
0.188233	1.283136	-0.000012	1.127383	1.127383	3.970042	0.286915	
0.191106	1.283105	0.000045	1.127301	1.127301	3.969848	0.286915	
0.195313	1.283126	0.000006	1.127357	1.127357	3.969979	0.286915	
0.199519	1.283178	-0.000086	1.127493	1.127493	3.970302	0.286915	
0.202392	1.283121	0.000014	1.127345	1.127345	3.969952	0.286915	
0.203858	1.283068	0.000110	1.127205	1.127205	3.969622	0.286915	
0.206731	1.283078	0.000092	1.127232	1.127232	3.969684	0.286915	
0.210938	1.283201	-0.000128	1.127554	1.127554	3.970443	0.286915	
0.215144	1.283171	-0.000073	1.127473	1.127473	3.970260	0.286915	
0.218017	1.282978	0.000267	1.126974	1.126974	3.969066	0.286915	
0.219483	1.282958	0.000307	1.126915	1.126915	3.968941	0.286915	
0.222356	1.283136	-0.000012	1.127385	1.127385	3.970042	0.286915	
0.226563	1.283335	-0.000367	1.127905	1.127905	3.971275	0.286915	
0.230769	1.283028	0.000184	1.127095	1.127095	3.969371	0.286915	
0.233642	1.282767	0.000642	1.126424	1.126424	3.967760	0.286915	
0.235108	1.282881	0.000445	1.126714	1.126714	3.968466	0.286915	
0.237981	1.283311	-0.000324	1.127843	1.127843	3.971123	0.286915	
0.242188	1.283474	-0.000615	1.128268	1.128268	3.972135	0.286915	
0.246394	1.282778	0.000629	1.126442	1.126442	3.967825	0.286915	
0.249267	1.282587	0.000964	1.125954	1.125953	3.966646	0.286915	
0.250733	1.282870	0.000463	1.126688	1.126688	3.968398	0.286915	
0.253606	1.283609	-0.000856	1.128625	1.128624	3.972970	0.286915	
0.257813	1.283059	0.000134	1.127157	1.127157	3.969568	0.286915	
0.262019	1.278632	0.008057	1.115570	1.115528	3.942219	0.286915	
0.264892	1.273405	0.017398	1.102117	1.101925	3.910058	0.286915	
0.266358	1.270395	0.022793	1.094448	1.094118	3.891594	0.286915	
0.269231	1.263946	0.034328	1.078296	1.077551	3.852180	0.286915	
0.273438	1.253893	0.052315	1.053763	1.052047	3.791149	0.286915	
0.277644	1.243522	0.070873	1.029282	1.026159	3.728696	0.286915	
0.280517	1.236293	0.083807	1.012709	1.008368	3.685469	0.286915	
0.281983	1.232577	0.090456	1.004342	0.999300	3.663346	0.286915	
0.284856	1.225236	0.103593	0.988126	0.981552	3.619837	0.286915	
0.289063	1.214387	0.123008	0.964896	0.955709	3.556019	0.286915	
0.293269	1.203450	0.142577	0.942350	0.930118	3.492252	0.286915	
0.296142	1.195944	0.156006	0.927377	0.912824	3.448828	0.286915	
0.297608	1.192105	0.162877	0.919873	0.904061	3.426720	0.286915	
0.300481	1.184565	0.176371	0.905438	0.887014	3.383508	0.286915	
0.304688	1.173488	0.196192	0.884947	0.862362	3.320525	0.286915	
0.308894	1.162375	0.216076	0.865229	0.838094	3.257933	0.286915	
0.311767	1.154768	0.229687	0.852209	0.821748	3.215433	0.286915	
0.313233	1.150882	0.236641	0.845703	0.813479	3.193825	0.286915	
0.316106	1.143256	0.250286	0.833225	0.797417	3.151643	0.286915	
0.320313	1.132071	0.270303	0.815596	0.774239	3.090274	0.286915	
0.324519	1.120863	0.290358	0.798719	0.751470	3.029386	0.286915	
0.327392	1.113197	0.304073	0.787620	0.736157	2.988091	0.286915	
0.328858	1.109282	0.311078	0.782090	0.728418	2.967111	0.286915	
0.331731	1.101605	0.324818	0.771511	0.713397	2.926181	0.286915	
0.335938	1.090346	0.344965	0.756623	0.691747	2.866675	0.286915	
0.340144	1.079070	0.365141	0.742442	0.670507	2.807689	0.286915	
0.343017	1.071360	0.378936	0.733157	0.656237	2.767711	0.286915	
0.344483	1.067423	0.385981	0.728542	0.649029	2.747406	0.286915	
0.347356	1.059702	0.399798	0.719737	0.635046	2.707803	0.286915	
0.351563	1.048380	0.420058	0.707402	0.614909	2.650254	0.286915	
0.355769	1.037040	0.440349	0.695715	0.595170	2.593229	0.286915	
0.358642	1.029284	0.454225	0.688098	0.581916	2.554586	0.286915	
0.360108	1.025323	0.461313	0.684323	0.575223	2.534960	0.286915	
0.362981	1.017553	0.475218	0.677143	0.562245	2.496687	0.286915	
0.367188	1.006156	0.495613	0.667136	0.543564	2.441072	0.286915	
0.371394	0.994735	0.516048	0.657715	0.525263	2.385969	0.286915	
0.374267	0.986923	0.530026	0.651612	0.512985	2.348640	0.286915	
0.375733	0.982933	0.537166	0.648599	0.506788	2.329686	0.286915	
0.378606	0.975108	0.551169	0.642893	0.494780	2.292741	0.286915	
0.382813	0.963634	0.571701	0.634998	0.477520	2.239104	0.286915	
0.387019	0.952149	0.592252	0.627638	0.460649	2.186048	0.286915	
0.389892	0.944351	0.606262	0.622910	0.449360	2.150096	0.286930	
0.391358	0.940349	0.613425	0.620590	0.443668	2.131914	0.286930	
0.394231	0.932448	0.627504	0.616222	0.432641	2.096520	0.286915	
0.398438	0.920956	0.648070	0.610240	0.416842	2.045160	0.286915	
0.402644	0.909519	0.668586	0.604729	0.401449	1.994413	0.286930	
0.405517	0.901730	0.682575	0.601229	0.391167	1.960137	0.286945	
0.406983	0.897777	0.689701	0.599521	0.385990	1.942726	0.286960	
0.409856	0.889802	0.703818	0.596335	0.375949	1.909134	0.286915	
0.414063	0.878319	0.724361	0.592015	0.361589	1.860176	0.286915	
0.418269	0.867125	0.744588	0.588113	0.347741	1.812089	0.286976	
0.421142	0.859356	0.758491	0.585669	0.338471	1.779764	0.286976	
0.422608	0.855594	0.765394	0.584489	0.333874	1.763267	0.287036	
0.425481	0.847855	0.779165	0.582333	0.324968	1.731979	0.287006	
0.429688	0.836556	0.799361	0.579428	0.312158	1.686124	0.287006	
0.433894	0.825701	0.818875	0.576913	0.300074	1.642209	0.287036	
0.436767	0.818236	0.832172	0.575369	0.292050	1.612864	0.287021	
0.438233	0.814830	0.838492	0.574671	0.288230	1.598391	0.287096	
0.441106	0.808454	0.850030	0.573457	0.281382	1.572839	0.287142	
0.445313	0.803548	0.858725	0.572608	0.276336	1.554017	0.287127	
0.449519	0.804880	0.856460	0.572822	0.277623	1.558753	0.287157	
0.452392	0.805450	0.855381	0.572913	0.278249	1.561174	0.287142	
0.453858	0.804833	0.856425	0.572818	0.277660	1.558991	0.287127	
0.456731	0.804808	0.856841	0.572757	0.277322	1.557220	0.287247	
0.460938	0.805743	0.855098	0.572896	0.278320	1.561049	0.287232	
0.465144	0.806676	0.853578	0.573039	0.279169	1.564036	0.287278	
0.468017	0.805832	0.855253	0.572830	0.278114	1.559716	0.287353	
0.469483	0.805609	0.855618	0.572812	0.277926	1.559272	0.287323	
0.472356	0.805710	0.854897	0.572945	0.278519	1.562179	0.287142	
0.476563	0.806671	0.853550	0.573022	0.279173	1.564015	0.287278	
0.480769	0.806253	0.854507	0.572927	0.278571	1.561558	0.287338	
0.483642	0.806402	0.854111	0.572987	0.278849	1.562763	0.287293	
0.485108	0.807273	0.852565	0.573137	0.279747	1.566141	0.287293	
0.487981	0.807679	0.851637	0.573219	0.280320	1.568561	0.287232	
0.492188	0.805997	0.853845	0.573129	0.279322	1.566030	0.286945	
0.496394	0.804735	0.855737	0.572962	0.278314	1.562600	0.286840	
0.499267	0.805620	0.854394	0.573105	0.279059	1.565197	0.286900	
0.500733	0.805723	0.854296	0.573115	0.279098	1.565173	0.286930	
0.503606	0.804648	0.855828	0.573032	0.278353	1.563101	0.286779	
0.507813	0.802569	0.858592	0.572893	0.277074	1.559646	0.286447	
0.512019	0.802263	0.858562	0.572926	0.277240	1.560979	0.286266	
0.514892	0.802420	0.858083	0.573001	0.277588	1.562641	0.286190	
0.516358	0.801517	0.859354	0.572922	0.276966	1.560810	0.286069	
0.519231	0.800793	0.860307	0.572860	0.276515	1.559461	0.285964	
0.523438	0.802676	0.857637	0.572933	0.277732	1.562798	0.286251	
0.527644	0.803893	0.855883	0.573051	0.278611	1.565639	0.286386	
0.530517	0.802349	0.858641	0.572795	0.277024	1.559631	0.286386	
0.531983	0.802252	0.859095	0.572747	0.276699	1.557997	0.286477	
0.534856	0.804549	0.856145	0.573109	0.278248	1.562506	0.286794	
0.539063	0.806322	0.853567	0.573520	0.279786	1.567923	0.286900	
0.543269	0.803812	0.857582	0.573156	0.277576	1.560277	0.286749	
0.546142	0.802654	0.859103	0.572841	0.276638	1.557040	0.286658	
0.547608	0.803803	0.856796	0.572953	0.277917	1.562134	0.286613	
0.550481	0.805105	0.854200	0.573049	0.279324	1.567407	0.286598	
0.554688	0.804106	0.855749	0.572973	0.278547	1.564994	0.286492	
0.558894	0.801781	0.859172	0.572865	0.276936	1.560153	0.286190	
0.561767	0.803059	0.856636	0.573260	0.278607	1.567032	0.286054	
0.563233	0.803435	0.855711	0.573325	0.279171	1.569345	0.285994	
0.566106	0.801392	0.857181	0.572952	0.278536	1.569187	0.285435	
0.570313	0.796525	0.859047	0.570741	0.276838	1.568314	0.284136	
0.574519	0.804666	0.855334	0.573144	0.278798	1.565278	0.286628	
0.577392	0.805967	0.851606	0.573263	0.281007	1.575002	0.286296	
0.578858	0.792540	0.855871	0.569415	0.279141	1.587208	0.281689	
0.581731	0.731086	0.862932	0.548643	0.276441	1.683734	0.258005	
0.585938	0.539819	0.868947	0.480730	0.276930	2.201822	0.178751	
0.590144	0.347840	0.869993	0.411096	0.279458	3.335667	0.099783	
0.593017	0.264378	0.870677	0.378942	0.278732	4.323778	0.068245	
0.594483	0.240199	0.868238	0.369290	0.278755	4.744945	0.059575	
0.597356	0.208541	0.866346	0.356484	0.278223	5.432789	0.048730	
0.601563	0.186027	0.865207	0.346371	0.276743	6.039709	0.041449	
0.605769	0.177395	0.863864	0.342397	0.276206	6.315497	0.038730	
0.608642	0.175936	0.859998	0.341995	0.276934	6.384946	0.038217	
0.610108	0.176491	0.855718	0.342283	0.277665	6.378507	0.038353	
0.612981	0.176222	0.852415	0.342658	0.278635	6.410930	0.038202	
0.617188	0.175820	0.852721	0.343104	0.279182	6.439135	0.038035	
0.621394	0.176616	0.852836	0.342924	0.278695	6.397913	0.038322	
0.624267	0.176686	0.855028	0.342324	0.277739	6.377156	0.038398	
0.625733	0.176107	0.858160	0.341851	0.277005	6.381819	0.038262	
0.628606	0.174919	0.864283	0.341266	0.275935	6.399411	0.037960	
0.632813	0.175245	0.862542	0.341503	0.276314	6.391860	0.038050	
0.637019	0.176779	0.851216	0.342815	0.278771	6.394180	0.038368	
0.639892	0.176972	0.848067	0.343383	0.279742	6.413360	0.038353	
0.641358	0.176588	0.848901	0.343390	0.279763	6.427119	0.038232	
0.644231	0.175540	0.854201	0.343378	0.279336	6.455528	0.037930	
0.648438	0.175580	0.858601	0.342621	0.277903	6.416311	0.038050	
0.652644	0.176375	0.858251	0.342040	0.277082	6.370135	0.038353	
0.655517	0.176187	0.860729	0.341761	0.276497	6.366918	0.038322	
0.656983	0.175758	0.862727	0.341693	0.276284	6.377191	0.038202	
0.659856	0.174979	0.863841	0.341976	0.276690	6.414327	0.037930	
0.664063	0.175746	0.855392	0.342759	0.278463	6.423210	0.038066	
0.668269	0.177058	0.845873	0.343413	0.280070	6.414366	0.038368	
0.671142	0.176852	0.848400	0.343058	0.279411	6.409882	0.038337	
0.672608	0.176339	0.851755	0.342757	0.278791	6.414212	0.038217	
0.675481	0.175179	0.858595	0.341979	0.277409	6.423722	0.037945	
0.679688	0.175330	0.861094	0.341047	0.276045	6.382439	0.038096	
0.683894	0.176290	0.858225	0.341367	0.276444	6.358854	0.038368	
0.686767	0.176318	0.858056	0.342031	0.277123	6.376385	0.038322	
0.688233	0.176062	0.857865	0.342495	0.277710	6.399290	0.038202	
0.691106	0.175424	0.856712	0.343173	0.278796	6.446944	0.037930	
0.695313	0.175975	0.851351	0.343322	0.279549	6.440008	0.038066	
0.699519	0.176864	0.849350	0.342958	0.279163	6.400374	0.038368	
0.702392	0.176560	0.854415	0.342473	0.278026	6.388724	0.038337	
0.703858	0.176041	0.858244	0.342220	0.277386	6.392561	0.038217	
0.706731	0.174877	0.865179	0.341646	0.276195	6.406786	0.037930	
0.710938	0.175183	0.864073	0.341205	0.275807	6.382177	0.038066	
0.715144	0.176489	0.853452	0.341888	0.277613	6.378365	0.038353	
0.718017	0.176633	0.849254	0.342507	0.278811	6.404334	0.038307	
0.719483	0.176309	0.849277	0.342696	0.279113	6.422478	0.038186	
0.722356	0.175470	0.851994	0.342709	0.279023	6.450342	0.037930	
0.726563	0.175757	0.854449	0.342218	0.278060	6.413573	0.038096	
0.730769	0.176382	0.855722	0.341892	0.277313	6.375798	0.038337	
0.733642	0.176067	0.859467	0.341638	0.276609	6.373737	0.038277	
0.735108	0.175599	0.862259	0.341485	0.276207	6.381233	0.038156	
0.737981	0.174822	0.865060	0.341382	0.275970	6.402770	0.037930	
0.742188	0.175665	0.857388	0.341969	0.277402	6.401640	0.038111	
0.746394	0.176992	0.846407	0.343362	0.279963	6.414801	0.038353	
0.749267	0.176861	0.847774	0.343688	0.280131	6.426142	0.038292	
0.750733	0.176358	0.851925	0.343558	0.279560	6.431283	0.038171	
0.753606	0.175252	0.859343	0.342933	0.278224	6.439614	0.037915	
0.757813	0.175429	0.862442	0.341977	0.276734	6.394893	0.038081	
0.762019	0.176197	0.860702	0.341712	0.276448	6.362451	0.038337	
0.764892	0.175980	0.861304	0.341906	0.276631	6.377785	0.038247	
0.766358	0.175615	0.861587	0.342144	0.276962	6.398000	0.038111	
0.769231	0.175262	0.859112	0.342759	0.278081	6.435035	0.037930	
0.773438	0.176422	0.849905	0.343572	0.279853	6.430695	0.038186	
0.777644	0.177033	0.848977	0.343905	0.280106	6.417762	0.038353	
0.780517	0.176130	0.859573	0.343096	0.278028	6.404234	0.038202	
0.781983	0.175401	0.863729	0.342796	0.277369	6.413717	0.038020	
0.784856	0.175007	0.863927	0.342280	0.276970	6.416335	0.037930	
0.789063	0.176661	0.863172	0.342619	0.276807	6.354775	0.038458	
0.793269	0.175978	0.864164	0.342423	0.276715	6.377622	0.038247	
0.796142	0.174455	0.858545	0.342759	0.278463	6.470887	0.037658	
0.797608	0.174476	0.853878	0.342682	0.279076	6.483138	0.037628	
0.800481	0.178177	0.850423	0.345046	0.280615	6.386680	0.038685	
0.804688	0.176803	0.856633	0.345069	0.280198	6.427110	0.038277	
0.808894	0.173852	0.864539	0.342538	0.277567	6.474202	0.037522	
0.811767	0.176070	0.867503	0.342204	0.275952	6.358452	0.038322	
0.813233	0.180393	0.868664	0.347920	0.279860	6.296159	0.039425	
0.816106	0.176446	0.850181	0.338643	0.274875	6.318896	0.038519	
0.820313	0.172003	0.869226	0.341652	0.276674	6.519201	0.037008	
0.824519	0.180898	0.873365	0.354613	0.285621	6.407052	0.039198	
0.827392	0.175945	0.682304	0.290845	0.249890	5.764559	0.040165	
0.828858	0.136962	0.287755	0.164651	0.158981	4.701637	0.034758	
0.831731	0.119075	-0.149865	0.079550	0.078213	2.665013	0.039984	
0.835938	0.134965	0.098317	0.117685	0.117032	3.518835	0.039455	
0.840144	0.126803	-0.028204	0.097459	0.097408	3.115892	0.039395	
0.843017	0.125279	-0.077328	0.090788	0.090413	2.929403	0.040120	
0.844483	0.133355	0.079707	0.112624	0.112200	3.413798	0.039576	
0.847356	0.128671	0.001536	0.102331	0.102331	3.226183	0.039289	
0.851563	0.128370	-0.007460	0.100363	0.100360	3.173315	0.039516	
0.855769	0.129429	0.011091	0.103063	0.103056	3.230971	0.039485	
0.858642	0.128259	-0.007395	0.100464	0.100460	3.177816	0.039455	
0.860108	0.128261	-0.009068	0.100065	0.100059	3.165461	0.039531	
0.862981	0.129095	0.005032	0.102253	0.102252	3.214329	0.039485	
0.867188	0.128662	-0.001899	0.101250	0.101250	3.192780	0.039485	
0.871394	0.128801	0.000396	0.101568	0.101568	3.199714	0.039485	
0.874267	0.128940	0.002650	0.101886	0.101886	3.206605	0.039485	
0.875733	0.128650	-0.002062	0.101234	0.101233	3.192180	0.039485	
0.878606	0.128765	-0.000242	0.101482	0.101482	3.197928	0.039485	
0.882813	0.128800	0.000386	0.101570	0.101570	3.199652	0.039485	
0.887019	0.128752	-0.000439	0.101456	0.101456	3.197270	0.039485	
0.889892	0.128796	0.000296	0.101556	0.101556	3.199446	0.039485	
0.891358	0.128805	0.000459	0.101581	0.101581	3.199892	0.039485	
0.894231	0.128763	-0.000248	0.101482	0.101482	3.197818	0.039485	
0.898438	0.128784	0.000097	0.101529	0.101529	3.198838	0.039485	
0.902644	0.128777	-0.000020	0.101513	0.101513	3.198493	0.039485	
0.905517	0.128771	-0.000122	0.101499	0.101499	3.198182	0.039485	
0.906983	0.128784	0.000097	0.101529	0.101529	3.198850	0.039485	
0.909856	0.128778	0.000009	0.101517	0.101517	3.198575	0.039485	
0.914063	0.128777	-0.000016	0.101514	0.101514	3.198506	0.039485	
0.918269	0.128779	0.000018	0.101519	0.101519	3.198606	0.039485	
0.921142	0.128777	-0.000013	0.101514	0.101514	3.198513	0.039485	
0.922608	0.128777	-0.000019	0.101513	0.101513	3.198497	0.039485	
0.925481	0.128779	0.000010	0.101517	0.101517	3.198582	0.039485	
0.929688	0.128778	-0.000004	0.101516	0.101516	3.198540	0.039485	
0.933894	0.128778	0.000001	0.101516	0.101516	3.198554	0.039485	
0.936767	0.128778	0.000005	0.101517	0.101517	3.198567	0.039485	
0.938233	0.128778	-0.000004	0.101516	0.101516	3.198540	0.039485	
0.941106	0.128778	-0.000001	0.101516	0.101516	3.198550	0.039485	
0.945313	0.128778	0.000001	0.101516	0.101516	3.198554	0.039485	
0.949519	0.128778	-0.000001	0.101516	0.101516	3.198549	0.039485	
0.952392	0.128778	0.000000	0.101516	0.101516	3.198553	0.039485	
0.953858	0.128778	0.000001	0.101516	0.101516	3.198554	0.039485	
0.956731	0.128778	-0.000000	0.101516	0.101516	3.198550	0.039485	
0.960938	0.128778	0.000000	0.101516	0.101516	3.198552	0.039485	
0.965144	0.128778	-0.000000	0.101516	0.101516	3.198552	0.039485	
0.968017	0.128778	-0.000000	0.101516	0.101516	3.198551	0.039485	
0.969483	0.128778	0.000000	0.101516	0.101516	3.198552	0.039485	
0.972356	0.128778	0.000000	0.101516	0.101516	3.198552	0.039485	
0.976563	0.128778	-0.000000	0.101516	0.101516	3.198552	0.039485	
0.980769	0.128778	0.000000	0.101516	0.101516	3.198552	0.039485	
0.983642	0.128778	-0.000000	0.101516	0.101516	3.198552	0.039485	
0.985108	0.128778	-0.000000	0.101516	0.101516	3.198552	0.039485	
0.987981	0.128778	0.000000	0.101516	0.101516	3.198552	0.039485	
0.992188	0.128778	-0.000000	0.101516	0.101516	3.198552	0.039485	
0.996394	0.128778	0.000000	0.101516	0.101516	3.198552	0.039485	
0.999267	0.128778	0.000000	0.101516	0.101516	3.198552	0.039485	
