TITLE = "DG1DMBX32-P4RK3w10000iv80"
VARIABLES = "x" "Density" "Velocity in x" "Energy" "Pressure" "Temperature" "Fugacity"
ZONE T = "Final Time 0.10"
I = 160, J = 1, K = 1, F = POINT

0.001466	1.000000	-0.000000	1.000000	1.000000	4.000000	0.282095	
0.007211	1.000000	-0.000000	1.000000	1.000000	4.000000	0.282095	
0.015625	1.000000	0.000000	1.000000	1.000000	4.000000	0.282095	
0.024039	1.000000	-0.000000	1.000000	1.000000	4.000000	0.282095	
0.029784	1.000000	-0.000000	1.000000	1.000000	4.000000	0.282095	
0.032716	1.000000	0.000000	1.000000	1.000000	4.000000	0.282095	
0.038461	1.000000	-0.000000	1.000000	1.000000	4.000000	0.282095	
0.046875	1.000000	-0.000000	1.000000	1.000000	4.000000	0.282095	
0.055289	1.000000	0.000000	1.000000	1.000000	4.000000	0.282095	
0.061034	1.000000	-0.000000	1.000000	1.000000	4.000000	0.282095	
0.063966	1.000000	-0.000000	1.000000	1.000000	4.000000	0.282095	
0.069711	1.000000	0.000000	1.000000	1.000000	4.000000	0.282095	
0.078125	1.000000	-0.000000	1.000000	1.000000	4.000000	0.282095	
0.086539	1.000000	0.000000	1.000000	1.000000	4.000000	0.282095	
0.092284	1.000000	0.000000	1.000000	1.000000	4.000000	0.282095	
0.095216	1.000000	-0.000000	1.000000	1.000000	4.000000	0.282095	
0.100961	1.000000	-0.000000	1.000000	1.000000	4.000000	0.282095	
0.109375	1.000000	0.000000	1.000000	1.000000	4.000000	0.282095	
0.117789	1.000000	-0.000000	1.000000	1.000000	4.000000	0.282095	
0.123534	1.000000	0.000000	1.000000	1.000000	4.000000	0.282095	
0.126466	1.000000	0.000000	1.000000	1.000000	4.000000	0.282095	
0.132211	1.000000	-0.000000	1.000000	1.000000	4.000000	0.282095	
0.140625	1.000000	0.000000	1.000000	1.000000	4.000000	0.282095	
0.149039	1.000000	0.000000	1.000000	1.000000	4.000000	0.282095	
0.154784	1.000000	-0.000000	1.000000	1.000000	4.000000	0.282095	
0.157716	1.000000	0.000000	1.000000	1.000000	4.000000	0.282095	
0.163461	1.000000	0.000000	1.000000	1.000000	4.000000	0.282095	
0.171875	1.000000	-0.000000	1.000000	1.000000	4.000000	0.282095	
0.180289	1.000000	0.000000	1.000000	1.000000	3.999999	0.282095	
0.186034	1.000000	0.000000	1.000000	1.000000	4.000000	0.282095	
0.188966	1.000000	-0.000001	1.000001	1.000001	4.000002	0.282095	
0.194711	1.000000	0.000000	1.000000	1.000000	4.000000	0.282095	
0.203125	1.000000	0.000000	0.999999	0.999999	3.999999	0.282095	
0.211539	1.000001	-0.000001	1.000002	1.000002	4.000005	0.282095	
0.217284	0.999999	0.000002	0.999997	0.999997	3.999993	0.282095	
0.220216	0.999999	0.000003	0.999996	0.999996	3.999991	0.282095	
0.225961	1.000001	-0.000002	1.000003	1.000003	4.000008	0.282095	
0.234375	1.000000	0.000000	1.000000	1.000000	3.999998	0.282095	
0.242789	0.999998	0.000004	0.999995	0.999995	3.999986	0.282095	
0.248534	1.000006	-0.000016	1.000019	1.000019	4.000052	0.282095	
0.251466	1.000002	-0.000005	1.000006	1.000006	4.000015	0.282095	
0.257211	0.999994	0.000014	0.999983	0.999983	3.999953	0.282095	
0.265625	1.000004	-0.000010	1.000014	1.000014	4.000038	0.282095	
0.274039	1.000003	-0.000007	1.000005	1.000005	4.000010	0.282095	
0.279784	0.999969	0.000078	0.999910	0.999910	3.999763	0.282094	
0.282716	1.000002	-0.000005	1.000008	1.000008	4.000024	0.282094	
0.288461	1.000026	-0.000065	1.000080	1.000080	4.000216	0.282094	
0.296875	0.999975	0.000065	0.999916	0.999916	3.999766	0.282096	
0.305289	0.999998	0.000002	1.000012	1.000012	4.000055	0.282092	
0.311034	1.000132	-0.000326	1.000378	1.000378	4.000983	0.282097	
0.313966	0.999988	0.000019	0.999961	0.999961	3.999892	0.282095	
0.319711	0.999884	0.000298	0.999641	0.999641	3.999026	0.282097	
0.328125	1.000100	-0.000258	1.000334	1.000334	4.000937	0.282090	
0.336539	1.000064	-0.000152	1.000129	1.000129	4.000261	0.282104	
0.342284	0.999466	0.001320	0.998453	0.998452	3.995942	0.282087	
0.345216	0.999803	0.000550	0.999409	0.999409	3.998424	0.282095	
0.350961	1.000464	-0.001218	1.001452	1.001451	4.003950	0.282086	
0.359375	0.999931	0.000238	0.999688	0.999688	3.999026	0.282110	
0.367789	0.999086	0.002246	0.997351	0.997349	3.993045	0.282082	
0.373534	1.001148	-0.003056	1.003609	1.003605	4.009816	0.282073	
0.376466	1.002063	-0.005210	1.006258	1.006245	4.016694	0.282089	
0.382211	1.000018	0.000275	0.999877	0.999877	3.999435	0.282120	
0.390625	0.997823	0.005154	0.993383	0.993369	3.982146	0.282111	
0.399039	1.002441	-0.006228	1.008163	1.008144	4.022757	0.281982	
0.404784	1.004868	-0.010685	1.013434	1.013376	4.033871	0.282275	
0.407716	1.000391	-0.001768	1.001486	1.001485	4.004373	0.282051	
0.413461	0.987004	0.032716	0.960048	0.959520	3.888613	0.282388	
0.421875	0.953361	0.114697	0.871426	0.865155	3.629918	0.282315	
0.430289	0.912028	0.216372	0.778332	0.756983	3.319998	0.282400	
0.436034	0.882600	0.288027	0.722845	0.686235	3.110062	0.282361	
0.438966	0.866355	0.326884	0.696260	0.649973	3.000957	0.282157	
0.444711	0.836166	0.403102	0.650401	0.582466	2.786366	0.282617	
0.453125	0.787475	0.519516	0.594862	0.488593	2.481822	0.282018	
0.461539	0.737788	0.642784	0.553522	0.401106	2.174642	0.282269	
0.467284	0.703328	0.727875	0.533424	0.347112	1.974108	0.282422	
0.470216	0.686251	0.769282	0.525729	0.322670	1.880769	0.282319	
0.475961	0.655584	0.839777	0.514751	0.283584	1.730267	0.281188	
0.484375	0.640789	0.880296	0.511815	0.263535	1.645068	0.281869	
0.492789	0.651596	0.857763	0.514765	0.275056	1.688511	0.282912	
0.498534	0.648028	0.855517	0.513278	0.276129	1.704429	0.280046	
0.501466	0.647972	0.854547	0.513159	0.276569	1.707289	0.279787	
0.507211	0.638764	0.861666	0.509783	0.272652	1.707371	0.275805	
0.515625	0.666780	0.865112	0.519452	0.269936	1.619343	0.295623	
0.524039	0.579753	0.863812	0.490595	0.274297	1.892511	0.237766	
0.529784	0.408854	0.860997	0.430043	0.278498	2.724673	0.139745	
0.532716	0.285366	0.881356	0.388468	0.277634	3.891619	0.081613	
0.538461	0.167078	0.888756	0.338057	0.272070	6.513602	0.036935	
0.546875	0.166178	0.859636	0.334278	0.272877	6.568296	0.036582	
0.555289	0.177395	0.862920	0.338622	0.272575	6.146175	0.040370	
0.561034	0.164170	0.881056	0.331826	0.268106	6.532391	0.036240	
0.563966	0.163509	0.875143	0.329852	0.267239	6.537592	0.036079	
0.569711	0.176183	0.850349	0.339116	0.275417	6.252989	0.039751	
0.578125	0.168608	0.854338	0.337235	0.275702	6.540663	0.037196	
0.586539	0.167750	0.847580	0.333449	0.273193	6.514286	0.037081	
0.592284	0.179086	0.826185	0.335258	0.274137	6.123044	0.040832	
0.595216	0.175999	0.843233	0.319809	0.257238	5.846352	0.041067	
0.600961	0.168019	0.952748	0.367091	0.290833	6.923809	0.036026	
0.609375	0.157772	0.668631	0.264576	0.229309	5.813658	0.036917	
0.617789	0.123888	-0.108544	0.077956	0.077226	2.493408	0.044265	
0.623534	0.111623	-0.143041	0.090166	0.089024	3.190154	0.035259	
0.626466	0.144888	0.244458	0.140257	0.135928	3.752623	0.042198	
0.632211	0.121415	-0.037309	0.097390	0.097305	3.205707	0.038259	
0.640625	0.125186	-0.000033	0.098710	0.098710	3.154014	0.039769	
0.649039	0.126798	0.028078	0.104876	0.104826	3.306853	0.039340	
0.654784	0.121277	-0.051642	0.092731	0.092570	3.053168	0.039159	
0.657716	0.124996	-0.011872	0.097760	0.097751	3.128141	0.039873	
0.663461	0.126073	0.020359	0.103263	0.103237	3.275461	0.039302	
0.671875	0.124432	-0.010202	0.098391	0.098384	3.162679	0.039476	
0.680289	0.125305	0.005027	0.100804	0.100802	3.217815	0.039411	
0.686034	0.125324	0.007262	0.100909	0.100906	3.220626	0.039399	
0.688966	0.124427	-0.011249	0.098537	0.098529	3.167451	0.039444	
0.694711	0.125058	0.001060	0.100132	0.100132	3.202726	0.039425	
0.703125	0.125035	0.000648	0.100090	0.100090	3.201979	0.039423	
0.711539	0.124925	-0.001319	0.099817	0.099817	3.196069	0.039424	
0.717284	0.125099	0.001577	0.100217	0.100217	3.204398	0.039428	
0.720216	0.125048	0.000950	0.100146	0.100146	3.203417	0.039418	
0.725961	0.124956	-0.000752	0.099888	0.099888	3.197550	0.039425	
0.734375	0.125018	0.000295	0.100044	0.100044	3.200954	0.039424	
0.742789	0.124996	-0.000060	0.099991	0.099991	3.199808	0.039424	
0.748534	0.124981	-0.000346	0.099954	0.099954	3.199011	0.039424	
0.751466	0.125014	0.000248	0.100030	0.100030	3.200607	0.039425	
0.757211	0.125002	0.000042	0.100007	0.100007	3.200176	0.039424	
0.765625	0.124997	-0.000049	0.099993	0.099993	3.199836	0.039424	
0.774039	0.125003	0.000045	0.100007	0.100007	3.200141	0.039424	
0.779784	0.124999	-0.000011	0.099998	0.099998	3.199972	0.039424	
0.782716	0.124997	-0.000054	0.099992	0.099992	3.199831	0.039424	
0.788461	0.125001	0.000018	0.100003	0.100003	3.200057	0.039424	
0.796875	0.125000	-0.000004	0.099999	0.099999	3.199987	0.039424	
0.805289	0.125000	-0.000002	0.100000	0.100000	3.199993	0.039424	
0.811034	0.125001	0.000011	0.100002	0.100002	3.200032	0.039424	
0.813966	0.125000	-0.000003	0.100000	0.100000	3.199995	0.039424	
0.819711	0.125000	-0.000002	0.100000	0.100000	3.199991	0.039424	
0.828125	0.125000	0.000002	0.100000	0.100000	3.200005	0.039424	
0.836539	0.125000	-0.000001	0.100000	0.100000	3.199997	0.039424	
0.842284	0.125000	-0.000000	0.100000	0.100000	3.199999	0.039424	
0.845216	0.125000	0.000002	0.100000	0.100000	3.200005	0.039424	
0.850961	0.125000	-0.000000	0.100000	0.100000	3.199999	0.039424	
0.859375	0.125000	0.000000	0.100000	0.100000	3.200000	0.039424	
0.867789	0.125000	0.000000	0.100000	0.100000	3.200000	0.039424	
0.873534	0.125000	-0.000000	0.100000	0.100000	3.199999	0.039424	
0.876466	0.125000	0.000000	0.100000	0.100000	3.200000	0.039424	
0.882211	0.125000	0.000000	0.100000	0.100000	3.200000	0.039424	
0.890625	0.125000	-0.000000	0.100000	0.100000	3.200000	0.039424	
0.899039	0.125000	0.000000	0.100000	0.100000	3.200000	0.039424	
0.904784	0.125000	0.000000	0.100000	0.100000	3.200000	0.039424	
0.907716	0.125000	-0.000000	0.100000	0.100000	3.200000	0.039424	
0.913461	0.125000	0.000000	0.100000	0.100000	3.200000	0.039424	
0.921875	0.125000	-0.000000	0.100000	0.100000	3.200000	0.039424	
0.930289	0.125000	-0.000000	0.100000	0.100000	3.200000	0.039424	
0.936034	0.125000	0.000000	0.100000	0.100000	3.200000	0.039424	
0.938966	0.125000	-0.000000	0.100000	0.100000	3.200000	0.039424	
0.944711	0.125000	-0.000000	0.100000	0.100000	3.200000	0.039424	
0.953125	0.125000	0.000000	0.100000	0.100000	3.200000	0.039424	
0.961539	0.125000	-0.000000	0.100000	0.100000	3.200000	0.039424	
0.967284	0.125000	-0.000000	0.100000	0.100000	3.200000	0.039424	
0.970216	0.125000	0.000000	0.100000	0.100000	3.200000	0.039424	
0.975961	0.125000	-0.000000	0.100000	0.100000	3.200000	0.039424	
0.984375	0.125000	0.000000	0.100000	0.100000	3.200000	0.039424	
0.992789	0.125000	0.000000	0.100000	0.100000	3.200000	0.039424	
0.998534	0.125000	-0.000000	0.100000	0.100000	3.200000	0.039424	
