TITLE = "DG1DBEX64-P3RK4w100iv80"
VARIABLES = "x" "Density" "Velocity in x" "Energy" "Pressure" "Temperature" "Fugacity"
ZONE T = "Final Time 0.10"
I = 256, J = 1, K = 1, F = POINT

0.001085	1.260751	0.000002	1.118688	1.118688	3.999598	0.282157	
0.005156	1.260750	0.000002	1.118687	1.118687	3.999598	0.282157	
0.010469	1.260750	0.000002	1.118686	1.118686	3.999596	0.282157	
0.014540	1.260750	0.000003	1.118685	1.118685	3.999595	0.282157	
0.016710	1.260750	0.000003	1.118684	1.118684	3.999595	0.282157	
0.020781	1.260750	0.000004	1.118683	1.118683	3.999593	0.282157	
0.026094	1.260749	0.000005	1.118680	1.118680	3.999591	0.282157	
0.030165	1.260749	0.000006	1.118678	1.118678	3.999588	0.282157	
0.032335	1.260749	0.000007	1.118677	1.118677	3.999587	0.282157	
0.036406	1.260748	0.000008	1.118674	1.118674	3.999584	0.282157	
0.041719	1.260747	0.000010	1.118669	1.118669	3.999578	0.282157	
0.045790	1.260747	0.000013	1.118664	1.118664	3.999573	0.282157	
0.047960	1.260746	0.000014	1.118661	1.118661	3.999569	0.282157	
0.052031	1.260745	0.000017	1.118654	1.118654	3.999562	0.282157	
0.057344	1.260743	0.000023	1.118642	1.118642	3.999549	0.282157	
0.061415	1.260741	0.000029	1.118630	1.118630	3.999535	0.282157	
0.063585	1.260739	0.000033	1.118622	1.118622	3.999524	0.282157	
0.067656	1.260736	0.000041	1.118605	1.118605	3.999505	0.282157	
0.072969	1.260728	0.000062	1.118563	1.118563	3.999457	0.282157	
0.077040	1.260717	0.000090	1.118502	1.118502	3.998840	0.282172	
0.079210	1.260711	0.000106	1.118471	1.118471	3.998803	0.282172	
0.083281	1.260701	0.000132	1.118417	1.118417	3.998739	0.282172	
0.088594	1.260687	0.000169	1.118342	1.118342	3.998652	0.282172	
0.092665	1.260674	0.000205	1.118268	1.118268	3.998566	0.282172	
0.094835	1.260662	0.000233	1.118214	1.118214	3.998493	0.282172	
0.098906	1.260642	0.000286	1.118103	1.118103	3.997821	0.282187	
0.104219	1.260610	0.000369	1.117938	1.117938	3.997617	0.282187	
0.108290	1.260578	0.000449	1.117775	1.117775	3.996874	0.282202	
0.110460	1.260559	0.000496	1.117679	1.117678	3.996754	0.282202	
0.114531	1.260518	0.000601	1.117472	1.117472	3.995950	0.282218	
0.119844	1.260452	0.000769	1.117142	1.117141	3.994984	0.282233	
0.123915	1.260389	0.000927	1.116833	1.116832	3.994041	0.282248	
0.126085	1.260350	0.001023	1.116644	1.116643	3.993798	0.282248	
0.130156	1.260267	0.001228	1.116245	1.116244	3.992728	0.282263	
0.135469	1.260135	0.001555	1.115615	1.115613	3.990800	0.282293	
0.139540	1.260010	0.001858	1.115036	1.115034	3.988928	0.282323	
0.141710	1.259935	0.002042	1.114687	1.114684	3.988450	0.282323	
0.145781	1.259773	0.002432	1.113948	1.113945	3.986341	0.282354	
0.151094	1.259517	0.003046	1.112799	1.112793	3.983095	0.282399	
0.155165	1.259280	0.003608	1.111754	1.111745	3.979973	0.282444	
0.157335	1.259138	0.003945	1.111133	1.111123	3.978532	0.282459	
0.161406	1.258836	0.004654	1.109831	1.109817	3.974462	0.282520	
0.166719	1.258365	0.005750	1.107841	1.107820	3.969332	0.282580	
0.170790	1.257938	0.006738	1.106065	1.106036	3.963939	0.282656	
0.172960	1.257683	0.007323	1.105019	1.104986	3.961256	0.282686	
0.177031	1.257149	0.008541	1.102860	1.102814	3.955205	0.282761	
0.182344	1.256331	0.010390	1.099618	1.099551	3.946307	0.282867	
0.186415	1.255601	0.012026	1.096781	1.096691	3.938511	0.282958	
0.188585	1.255172	0.012983	1.095136	1.095030	3.934213	0.283003	
0.192656	1.254284	0.014950	1.091783	1.091642	3.924918	0.283109	
0.197969	1.252951	0.017876	1.086857	1.086657	3.911267	0.283260	
0.202040	1.251783	0.020417	1.082634	1.082373	3.899742	0.283381	
0.204210	1.251105	0.021884	1.080218	1.079919	3.893403	0.283441	
0.208281	1.249721	0.024861	1.075365	1.074979	3.880054	0.283577	
0.213594	1.247683	0.029203	1.068386	1.067854	3.861124	0.283758	
0.217665	1.245931	0.032902	1.062531	1.061856	3.845077	0.283909	
0.219835	1.244927	0.035011	1.059228	1.058465	3.835762	0.284000	
0.223906	1.242904	0.039235	1.052683	1.051727	3.818132	0.284151	
0.229219	1.239981	0.045288	1.043466	1.042194	3.792997	0.284362	
0.233290	1.237513	0.050355	1.035884	1.034315	3.771781	0.284544	
0.235460	1.236114	0.053211	1.031663	1.029913	3.760207	0.284634	
0.239531	1.233329	0.058867	1.023410	1.021273	3.737721	0.284800	
0.244844	1.229374	0.066836	1.012010	1.009264	3.705762	0.285042	
0.248915	1.226089	0.073403	1.002805	0.999502	3.680508	0.285208	
0.251085	1.224246	0.077067	0.997742	0.994106	3.665989	0.285314	
0.255156	1.220615	0.084253	0.987957	0.983624	3.638374	0.285495	
0.260469	1.215532	0.094237	0.974670	0.969272	3.600842	0.285722	
0.264540	1.211370	0.102355	0.964120	0.957775	3.570923	0.285888	
0.266710	1.209058	0.106844	0.958380	0.951479	3.554427	0.285979	
0.270781	1.204540	0.115575	0.947405	0.939360	3.522213	0.286160	
0.276094	1.198297	0.127561	0.932730	0.922981	3.479228	0.286371	
0.280165	1.193245	0.137199	0.921248	0.910017	3.445312	0.286522	
0.282335	1.190459	0.142493	0.915058	0.902973	3.426935	0.286598	
0.286406	1.185055	0.152716	0.903334	0.889515	3.391328	0.286749	
0.291719	1.177667	0.166613	0.887871	0.871525	3.343770	0.286930	
0.295790	1.171749	0.177681	0.875933	0.857437	3.306690	0.287051	
0.297960	1.168507	0.183724	0.869554	0.849833	3.286647	0.287111	
0.302031	1.162256	0.195330	0.857569	0.835397	3.248521	0.287217	
0.307344	1.153783	0.210981	0.841947	0.816268	3.197456	0.287353	
0.311415	1.147049	0.223354	0.830030	0.801419	3.157700	0.287444	
0.313585	1.143379	0.230077	0.823713	0.793451	3.136683	0.287474	
0.317656	1.136343	0.242925	0.811931	0.778402	3.096115	0.287550	
0.322969	1.126878	0.260131	0.796755	0.758628	3.043119	0.287610	
0.327040	1.119410	0.273645	0.785302	0.743390	3.001706	0.287655	
0.329210	1.115355	0.280959	0.779270	0.735249	2.979602	0.287670	
0.333281	1.107614	0.294884	0.768106	0.719949	2.938385	0.287670	
0.338594	1.097262	0.313431	0.753876	0.699979	2.883719	0.287670	
0.342665	1.089145	0.327916	0.743253	0.684695	2.841589	0.287655	
0.344835	1.084757	0.335725	0.737700	0.676568	2.819117	0.287640	
0.348906	1.076410	0.350540	0.727493	0.661359	2.777021	0.287595	
0.354219	1.065310	0.370170	0.714618	0.641631	2.722234	0.287504	
0.358290	1.056649	0.385427	0.705106	0.626622	2.680311	0.287414	
0.360460	1.051983	0.393627	0.700169	0.618671	2.658117	0.287353	
0.364531	1.043138	0.409133	0.691162	0.603857	2.616065	0.287247	
0.369844	1.031437	0.429569	0.679928	0.584762	2.561837	0.287066	
0.373915	1.022358	0.445368	0.671725	0.570331	2.520660	0.286900	
0.376085	1.017484	0.453830	0.667500	0.562718	2.498697	0.286809	
0.380156	1.008274	0.469778	0.659850	0.548591	2.457963	0.286613	
0.385469	0.996150	0.490692	0.650421	0.530496	2.405676	0.286311	
0.389540	0.986789	0.506774	0.643624	0.516910	2.365771	0.286069	
0.391710	0.981783	0.515353	0.640154	0.509779	2.344986	0.285918	
0.395781	0.972360	0.531451	0.633930	0.496613	2.306094	0.285631	
0.401094	0.960031	0.552424	0.626366	0.479878	2.256497	0.285208	
0.405165	0.950569	0.568443	0.620991	0.467413	2.219422	0.284846	
0.407335	0.945527	0.576951	0.618275	0.460905	2.200100	0.284634	
0.411406	0.936076	0.592839	0.613453	0.448957	2.164230	0.284226	
0.416719	0.923789	0.613371	0.607691	0.433915	2.118956	0.283637	
0.420790	0.914428	0.628909	0.603670	0.422830	2.085265	0.283154	
0.422960	0.909466	0.637107	0.601664	0.417085	2.068025	0.282867	
0.427031	0.900213	0.652315	0.598147	0.406620	2.036096	0.282323	
0.432344	0.888272	0.671763	0.594026	0.393603	1.996798	0.281523	
0.436415	0.879241	0.686320	0.591211	0.384135	1.967915	0.280873	
0.438585	0.874478	0.693939	0.589828	0.379275	1.953311	0.280496	
0.442656	0.865645	0.707947	0.587439	0.370513	1.926919	0.279756	
0.447969	0.854338	0.725610	0.584706	0.359798	1.895012	0.278698	
0.452040	0.845855	0.738634	0.582883	0.352142	1.872432	0.277822	
0.454210	0.841398	0.745386	0.582000	0.348259	1.861193	0.277324	
0.458281	0.833160	0.757683	0.580499	0.341347	1.841361	0.276342	
0.463594	0.822651	0.772963	0.578817	0.333062	1.818206	0.274952	
0.467665	0.814779	0.784062	0.577716	0.327272	1.802743	0.273789	
0.469835	0.810642	0.789759	0.577188	0.324381	1.795446	0.273125	
0.473906	0.802979	0.800040	0.576292	0.319313	1.783182	0.271810	
0.479219	0.793135	0.812672	0.575282	0.313374	1.769976	0.269953	
0.483290	0.785658	0.821784	0.574603	0.309315	1.762375	0.268382	
0.485460	0.781679	0.826449	0.574267	0.307317	1.758920	0.267506	
0.489531	0.774195	0.834859	0.573669	0.303866	1.754508	0.265723	
0.494844	0.764319	0.845225	0.572928	0.299911	1.751748	0.263171	
0.498915	0.756576	0.852771	0.572361	0.297263	1.752290	0.260996	
0.501085	0.752359	0.856674	0.572051	0.295977	1.753429	0.259757	
0.505156	0.744222	0.863816	0.571439	0.293778	1.757259	0.257265	
0.510469	0.733041	0.872869	0.570546	0.291294	1.765788	0.253640	
0.514540	0.723922	0.879687	0.569755	0.289652	1.775367	0.250528	
0.516710	0.718834	0.883301	0.569285	0.288861	1.781522	0.248746	
0.520781	0.708804	0.890083	0.568294	0.287520	1.795151	0.245151	
0.526094	0.694638	0.899024	0.566743	0.286024	1.817609	0.239909	
0.530165	0.682849	0.906019	0.565313	0.285048	1.838663	0.235438	
0.532335	0.676206	0.909816	0.564453	0.284583	1.851344	0.232886	
0.536406	0.663036	0.917091	0.562632	0.283807	1.878413	0.227750	
0.541719	0.644403	0.926919	0.559798	0.282969	1.920454	0.220364	
0.545790	0.629001	0.934719	0.557232	0.282453	1.958167	0.214186	
0.547960	0.620396	0.938972	0.555712	0.282220	1.980730	0.210697	
0.552031	0.603540	0.947124	0.552560	0.281860	2.027034	0.203839	
0.557344	0.580223	0.958060	0.547819	0.281532	2.096905	0.194278	
0.561415	0.561467	0.966607	0.543687	0.281389	2.158220	0.186545	
0.563585	0.551202	0.971196	0.541303	0.281350	2.194271	0.182285	
0.567656	0.531535	0.979823	0.536498	0.281347	2.267268	0.174129	
0.572969	0.505317	0.990965	0.529586	0.281472	2.374653	0.163238	
0.577040	0.485019	0.999294	0.523830	0.281663	2.466684	0.154810	
0.579210	0.474200	1.003610	0.520611	0.281796	2.519257	0.150324	
0.583281	0.454008	1.011411	0.514314	0.282100	2.624644	0.141971	
0.588594	0.428134	1.020809	0.505663	0.282595	2.776070	0.131307	
0.592665	0.408866	1.027267	0.498769	0.283035	2.902118	0.123422	
0.594835	0.398858	1.030391	0.495023	0.283288	2.972201	0.119359	
0.598906	0.380634	1.035604	0.487900	0.283789	3.110987	0.111988	
0.604219	0.358106	1.040976	0.478507	0.284480	3.302458	0.102985	
0.608290	0.341881	1.043904	0.471298	0.285018	3.457905	0.096566	
0.610460	0.333627	1.045016	0.467474	0.285304	3.541485	0.093349	
0.614531	0.318893	1.046240	0.460366	0.285832	3.703423	0.087639	
0.619844	0.301179	1.046121	0.451286	0.286486	3.919834	0.080872	
0.623915	0.288749	1.044724	0.444523	0.286946	4.088516	0.076190	
0.626085	0.282526	1.043532	0.441002	0.287173	4.177571	0.073879	
0.630156	0.271580	1.040487	0.434566	0.287558	4.345237	0.069846	
0.635469	0.258677	1.035032	0.426535	0.287976	4.561152	0.065163	
0.639540	0.249786	1.029820	0.420676	0.288224	4.721844	0.061991	
0.641710	0.245384	1.026720	0.417665	0.288328	4.805712	0.060436	
0.645781	0.237720	1.020368	0.412223	0.288472	4.957151	0.057762	
0.651094	0.228811	1.011203	0.405541	0.288558	5.145424	0.054696	
0.655165	0.222750	1.003644	0.400736	0.288548	5.280579	0.052642	
0.657335	0.219771	0.999475	0.398286	0.288516	5.351790	0.051630	
0.661406	0.214617	0.991448	0.393887	0.288406	5.472500	0.049923	
0.666719	0.208677	0.980724	0.388529	0.288174	5.622438	0.047959	
0.670790	0.204666	0.972424	0.384700	0.287933	5.724722	0.046660	
0.672960	0.202704	0.968001	0.382754	0.287785	5.772836	0.046041	
0.677031	0.199322	0.959747	0.379267	0.287468	5.864565	0.044953	
0.682344	0.195440	0.949144	0.375022	0.286988	5.969042	0.043730	
0.686415	0.192825	0.941185	0.371978	0.286573	6.036229	0.042929	
0.688585	0.191546	0.937014	0.370424	0.286336	6.070387	0.042537	
0.692656	0.189340	0.929333	0.367623	0.285860	6.131683	0.041857	
0.697969	0.186802	0.919602	0.364172	0.285186	6.196630	0.041102	
0.702040	0.185084	0.912362	0.361661	0.284628	6.242845	0.040588	
0.704210	0.184240	0.908579	0.360363	0.284316	6.262593	0.040346	
0.708281	0.182775	0.901593	0.357989	0.283702	6.298592	0.039923	
0.713594	0.181067	0.892676	0.354986	0.282842	6.338351	0.039440	
0.717665	0.179891	0.885952	0.352734	0.282135	6.361093	0.039123	
0.719835	0.179305	0.882391	0.351543	0.281739	6.375266	0.038957	
0.723906	0.178271	0.875730	0.349317	0.280958	6.393411	0.038685	
0.729219	0.177031	0.867008	0.346395	0.279858	6.412448	0.038368	
0.733290	0.176147	0.860231	0.344117	0.278943	6.421131	0.038156	
0.735460	0.175695	0.856565	0.342881	0.278427	6.424743	0.038050	
0.739531	0.174874	0.849540	0.340505	0.277401	6.432873	0.037854	
0.744844	0.173841	0.840003	0.337265	0.275933	6.436066	0.037628	
0.748915	0.173068	0.832322	0.334643	0.274696	6.437187	0.037461	
0.751085	0.172658	0.828066	0.333187	0.273992	6.433373	0.037386	
0.755156	0.171888	0.819727	0.330329	0.272579	6.429362	0.037235	
0.760469	0.170866	0.808023	0.326310	0.270531	6.417185	0.037054	
0.764540	0.170060	0.798299	0.322968	0.268780	6.404909	0.036918	
0.766710	0.169618	0.792810	0.321083	0.267776	6.398560	0.036842	
0.770781	0.168762	0.781857	0.317326	0.265744	6.382388	0.036706	
0.776094	0.167578	0.766118	0.311946	0.262768	6.357452	0.036525	
0.780165	0.166608	0.752772	0.307408	0.260202	6.327017	0.036404	
0.782335	0.166066	0.745148	0.304826	0.258723	6.312778	0.036329	
0.786406	0.164996	0.729772	0.299649	0.255713	6.279780	0.036193	
0.791719	0.163480	0.707357	0.292173	0.251274	6.228797	0.036011	
0.795790	0.162216	0.688130	0.285835	0.247429	6.180667	0.035875	
0.797960	0.161503	0.677076	0.282225	0.245206	6.152996	0.035800	
0.802031	0.160087	0.654698	0.274989	0.240680	6.092991	0.035664	
0.807344	0.158075	0.621958	0.264580	0.234006	5.997982	0.035498	
0.811415	0.156402	0.593905	0.255830	0.228247	5.912917	0.035377	
0.813585	0.155462	0.577821	0.250885	0.224932	5.862606	0.035317	
0.817656	0.153614	0.545480	0.241091	0.218238	5.754248	0.035226	
0.822969	0.151038	0.498891	0.227333	0.208536	5.592362	0.035135	
0.827040	0.148964	0.460010	0.216157	0.200396	5.449480	0.035105	
0.829210	0.147832	0.438254	0.210025	0.195828	5.366977	0.035105	
0.833281	0.145681	0.395868	0.198310	0.186895	5.198112	0.035150	
0.838594	0.142886	0.338661	0.182976	0.174782	4.956811	0.035301	
0.842665	0.140822	0.294777	0.171566	0.165447	4.760160	0.035498	
0.844835	0.139772	0.271877	0.165728	0.160562	4.652774	0.035634	
0.848906	0.137922	0.230615	0.155403	0.151736	4.456483	0.035921	
0.854219	0.135815	0.182028	0.143547	0.141297	4.215149	0.036359	
0.858290	0.134453	0.149675	0.135825	0.134319	4.047696	0.036721	
0.860460	0.133820	0.134381	0.132219	0.131011	3.969327	0.036903	
0.864531	0.132793	0.109200	0.126342	0.125550	3.834153	0.037250	
0.869844	0.131739	0.082817	0.120258	0.119806	3.686968	0.037673	
0.873915	0.131114	0.066899	0.116621	0.116328	3.598483	0.037945	
0.876085	0.130835	0.059716	0.114987	0.114754	3.556920	0.038081	
0.880156	0.130395	0.048323	0.112403	0.112251	3.490228	0.038307	
0.885469	0.129954	0.036775	0.109793	0.109705	3.424895	0.038534	
0.889540	0.129696	0.029944	0.108251	0.108193	3.383980	0.038685	
0.891710	0.129581	0.026866	0.107556	0.107509	3.364421	0.038760	
0.895781	0.129399	0.021984	0.106454	0.106422	3.336219	0.038866	
0.901094	0.129214	0.016999	0.105327	0.105309	3.305523	0.038987	
0.905165	0.129104	0.014017	0.104652	0.104639	3.289416	0.039047	
0.907335	0.129054	0.012660	0.104345	0.104334	3.279046	0.039093	
0.911406	0.128975	0.010487	0.103851	0.103844	3.267222	0.039138	
0.916719	0.128893	0.008234	0.103337	0.103333	3.252741	0.039198	
0.920790	0.128844	0.006862	0.103024	0.103021	3.245103	0.039229	
0.922960	0.128821	0.006231	0.102879	0.102876	3.238827	0.039259	
0.927031	0.128785	0.005209	0.102645	0.102643	3.234430	0.039274	
0.932344	0.128746	0.004135	0.102397	0.102396	3.227398	0.039304	
0.936415	0.128723	0.003471	0.102243	0.102243	3.223674	0.039319	
0.938585	0.128712	0.003164	0.102172	0.102172	3.220582	0.039334	
0.942656	0.128695	0.002662	0.102056	0.102055	3.217157	0.039349	
0.947969	0.128676	0.002124	0.101931	0.101930	3.213682	0.039365	
0.952040	0.128664	0.001789	0.101850	0.101850	3.210563	0.039380	
0.954210	0.128658	0.001635	0.101814	0.101814	3.210277	0.039380	
0.958281	0.128650	0.001373	0.101754	0.101754	3.209849	0.039380	
0.963594	0.128640	0.001094	0.101688	0.101688	3.206827	0.039395	
0.967665	0.128634	0.000926	0.101648	0.101648	3.206546	0.039395	
0.969835	0.128632	0.000843	0.101628	0.101628	3.206411	0.039395	
0.973906	0.128626	0.000684	0.101590	0.101590	3.203600	0.039410	
0.979219	0.128622	0.000552	0.101559	0.101559	3.203388	0.039410	
0.983290	0.128619	0.000478	0.101539	0.101539	3.203247	0.039410	
0.985460	0.128617	0.000431	0.101529	0.101529	3.203172	0.039410	
0.989531	0.128614	0.000331	0.101507	0.101507	3.203021	0.039410	
0.994844	0.128610	0.000219	0.101477	0.101477	3.200279	0.039425	
0.998915	0.128608	0.000178	0.101462	0.101462	3.200158	0.039425	
