TITLE = "DG1DMBX16-P4RK3w1000iv20"
VARIABLES = "x" "Density" "Velocity in x" "Energy" "Pressure" "Temperature" "Fugacity"
ZONE T = "Final Time 0.10"
I = 80, J = 1, K = 1, F = POINT

0.002932	0.999368	0.000000	0.986297	0.986297	3.947684	0.283778	
0.014423	0.999368	0.000000	0.986297	0.986297	3.947684	0.283778	
0.031250	0.999368	-0.000000	0.986297	0.986297	3.947684	0.283778	
0.048077	0.999368	0.000000	0.986297	0.986297	3.947683	0.283778	
0.059568	0.999368	-0.000000	0.986297	0.986297	3.947685	0.283778	
0.065432	0.999368	-0.000001	0.986298	0.986298	3.947686	0.283778	
0.076923	0.999368	0.000000	0.986297	0.986297	3.947683	0.283778	
0.093750	0.999368	0.000000	0.986297	0.986297	3.947684	0.283778	
0.110577	0.999368	-0.000001	0.986298	0.986298	3.947687	0.283778	
0.122068	0.999367	0.000004	0.986293	0.986293	3.947670	0.283779	
0.127932	0.999368	0.000000	0.986297	0.986297	3.947686	0.283778	
0.139423	0.999369	-0.000003	0.986301	0.986301	3.947696	0.283778	
0.156250	0.999367	0.000004	0.986292	0.986292	3.947667	0.283779	
0.173077	0.999369	-0.000003	0.986303	0.986303	3.947705	0.283778	
0.184568	0.999377	-0.000022	0.986321	0.986321	3.947745	0.283779	
0.190432	0.999360	0.000023	0.986265	0.986265	3.947586	0.283780	
0.201923	0.999362	0.000013	0.986283	0.986283	3.947650	0.283778	
0.218750	0.999382	-0.000034	0.986343	0.986343	3.947812	0.283778	
0.235577	0.999345	0.000062	0.986206	0.986206	3.947407	0.283782	
0.247068	0.999336	0.000061	0.986254	0.986254	3.947636	0.283771	
0.252932	0.999450	-0.000212	0.986578	0.986578	3.948483	0.283773	
0.264423	0.999384	-0.000021	0.986306	0.986306	3.947657	0.283784	
0.281250	0.999278	0.000213	0.986024	0.986024	3.946946	0.283779	
0.298077	0.999550	-0.000481	0.986971	0.986971	3.949660	0.283759	
0.309568	0.999518	-0.000214	0.986395	0.986395	3.947481	0.283828	
0.315432	0.998858	0.001281	0.984578	0.984577	3.942811	0.283809	
0.326923	0.999184	0.000343	0.985990	0.985990	3.947180	0.283744	
0.343750	1.000085	-0.001750	0.988555	0.988553	3.953874	0.283760	
0.360577	0.998660	0.001953	0.983358	0.983356	3.938703	0.283900	
0.372068	0.997465	0.004200	0.981536	0.981527	3.936086	0.283655	
0.377932	0.999624	-0.000395	0.988081	0.988081	3.953811	0.283631	
0.389423	1.001695	-0.006060	0.993275	0.993256	3.966304	0.283771	
0.406250	0.988031	0.030639	0.946506	0.946042	3.830008	0.284837	
0.423077	0.942447	0.143708	0.825564	0.815832	3.462612	0.285746	
0.434568	0.894395	0.257192	0.729923	0.700342	3.132135	0.285124	
0.440432	0.870247	0.318779	0.685521	0.641304	2.947687	0.285974	
0.451923	0.814302	0.460399	0.609612	0.523309	2.570589	0.286546	
0.468750	0.715118	0.684574	0.533063	0.365495	2.044392	0.282176	
0.485577	0.647229	0.850494	0.510221	0.276138	1.706587	0.279524	
0.497068	0.645151	0.867926	0.512892	0.269897	1.673389	0.281377	
0.502932	0.635971	0.883698	0.511684	0.263362	1.656442	0.278788	
0.514423	0.590964	0.896383	0.497378	0.259958	1.759549	0.251354	
0.531250	0.358722	0.944447	0.422114	0.262128	2.922909	0.118379	
0.548077	0.199216	0.930275	0.344094	0.257892	5.178144	0.049393	
0.559568	0.181530	0.825580	0.314395	0.252531	5.564518	0.043417	
0.565432	0.179937	0.822786	0.305172	0.244265	5.430007	0.043566	
0.576923	0.171748	0.782653	0.292868	0.240266	5.595788	0.040962	
0.593750	0.159406	0.644289	0.250543	0.217457	5.456697	0.038500	
0.610577	0.136991	0.229621	0.143958	0.140346	4.097975	0.038180	
0.622068	0.119413	-0.110580	0.083924	0.083194	2.786777	0.040358	
0.627932	0.121045	-0.065631	0.091484	0.091224	3.014547	0.039333	
0.639423	0.128057	0.052186	0.107415	0.107240	3.349761	0.039475	
0.656250	0.124062	-0.013035	0.098317	0.098307	3.169597	0.039315	
0.673077	0.124973	-0.002868	0.099196	0.099195	3.174934	0.039571	
0.684568	0.126342	0.023027	0.103179	0.103145	3.265592	0.039445	
0.690432	0.124578	-0.004167	0.099785	0.099784	3.203906	0.039267	
0.701923	0.124685	-0.006124	0.098831	0.098829	3.170526	0.039507	
0.718750	0.125176	0.003322	0.100379	0.100379	3.207596	0.039433	
0.735577	0.124903	-0.001461	0.099668	0.099668	3.191859	0.039444	
0.747068	0.124910	-0.002053	0.099544	0.099544	3.187720	0.039471	
0.752932	0.125131	0.002602	0.100204	0.100203	3.203149	0.039446	
0.764423	0.124990	0.000020	0.099889	0.099889	3.196722	0.039441	
0.781250	0.124981	-0.000278	0.099819	0.099819	3.194696	0.039451	
0.798077	0.125011	0.000316	0.099912	0.099912	3.196910	0.039446	
0.809568	0.124980	-0.000195	0.099843	0.099843	3.195497	0.039445	
0.815432	0.124982	-0.000272	0.099821	0.099821	3.194742	0.039451	
0.826923	0.125001	0.000117	0.099883	0.099883	3.196227	0.039447	
0.843750	0.124992	-0.000030	0.099861	0.099861	3.195767	0.039448	
0.860577	0.124994	-0.000006	0.099864	0.099864	3.195811	0.039448	
0.872068	0.124997	0.000055	0.099873	0.099873	3.196026	0.039447	
0.877932	0.124993	-0.000022	0.099863	0.099863	3.195817	0.039447	
0.889423	0.124994	-0.000009	0.099864	0.099864	3.195808	0.039448	
0.906250	0.124994	0.000006	0.099866	0.099866	3.195872	0.039448	
0.923077	0.124994	-0.000004	0.099865	0.099865	3.195836	0.039448	
0.934568	0.124994	-0.000000	0.099865	0.099865	3.195844	0.039448	
0.940432	0.124994	0.000005	0.099866	0.099866	3.195867	0.039448	
0.951923	0.124994	-0.000001	0.099865	0.099865	3.195846	0.039448	
0.968750	0.124994	0.000000	0.099866	0.099866	3.195850	0.039448	
0.985577	0.124994	0.000000	0.099865	0.099865	3.195850	0.039448	
0.997068	0.124994	-0.000001	0.099865	0.099865	3.195847	0.039448	
