TITLE = "DG1DMBX32-P4RK4w10iv80"
VARIABLES = "x" "Density" "Velocity in x" "Energy" "Pressure" "Temperature" "Fugacity"
ZONE T = "Final Time 0.10"
I = 160, J = 1, K = 1, F = POINT

0.001466	0.999854	0.000733	0.998112	0.998111	3.993028	0.282300	
0.007211	0.999803	0.000954	0.997638	0.997638	3.991335	0.282345	
0.015625	0.999738	0.001254	0.996972	0.996971	3.988931	0.282412	
0.024039	0.999715	0.001385	0.996635	0.996634	3.987673	0.282450	
0.029784	0.999680	0.001543	0.996286	0.996285	3.986418	0.282484	
0.032716	0.999629	0.001750	0.995866	0.995865	3.984937	0.282523	
0.038461	0.999527	0.002174	0.994989	0.994987	3.981830	0.282604	
0.046875	0.999435	0.002590	0.994065	0.994062	3.978493	0.282697	
0.055289	0.999365	0.002917	0.993333	0.993329	3.975838	0.282771	
0.061034	0.999218	0.003498	0.992197	0.992191	3.971873	0.282870	
0.063966	0.999108	0.003921	0.991381	0.991374	3.969034	0.282940	
0.069711	0.998959	0.004535	0.990132	0.990122	3.964615	0.283056	
0.078125	0.998817	0.005165	0.988784	0.988771	3.959769	0.283189	
0.086539	0.998559	0.006170	0.986852	0.986833	3.953028	0.283357	
0.092284	0.998208	0.007462	0.984491	0.984463	3.944924	0.283548	
0.095216	0.998049	0.008063	0.983362	0.983330	3.941006	0.283644	
0.100961	0.997861	0.008851	0.981777	0.981738	3.935369	0.283794	
0.109375	0.997526	0.010163	0.979278	0.979226	3.926620	0.284014	
0.117789	0.996835	0.012600	0.975041	0.974961	3.912228	0.284339	
0.123534	0.996263	0.014631	0.971500	0.971394	3.900151	0.284615	
0.126466	0.996093	0.015303	0.970236	0.970119	3.895699	0.284729	
0.132211	0.995769	0.016565	0.967893	0.967757	3.887476	0.284938	
0.140625	0.994888	0.019585	0.962846	0.962656	3.870409	0.285312	
0.149039	0.993550	0.024017	0.955702	0.955415	3.846468	0.285814	
0.154784	0.992847	0.026503	0.951504	0.951156	3.832033	0.286149	
0.157716	0.992616	0.027396	0.949916	0.949544	3.826427	0.286292	
0.163461	0.991801	0.030100	0.945618	0.945169	3.811930	0.286601	
0.171875	0.989912	0.036009	0.936758	0.936116	3.782625	0.287161	
0.180289	0.987949	0.042276	0.927296	0.926413	3.750854	0.287802	
0.186034	0.987071	0.045305	0.922494	0.921481	3.734203	0.288187	
0.188966	0.986473	0.047202	0.919698	0.918599	3.724778	0.288377	
0.194711	0.984607	0.052684	0.912152	0.910785	3.700094	0.288790	
0.203125	0.981512	0.061811	0.899705	0.897830	3.658966	0.289495	
0.211539	0.979060	0.069423	0.889048	0.886689	3.622614	0.290217	
0.217284	0.977373	0.074475	0.882273	0.879563	3.599701	0.290638	
0.220216	0.975906	0.078487	0.877335	0.874329	3.583662	0.290850	
0.225961	0.972715	0.087210	0.866713	0.863014	3.548890	0.291316	
0.234375	0.968723	0.098583	0.852620	0.847913	3.501157	0.292092	
0.242789	0.965328	0.108356	0.840661	0.834994	3.459941	0.292796	
0.248534	0.961626	0.117964	0.830128	0.823437	3.425189	0.293149	
0.251466	0.959127	0.124279	0.823452	0.816045	3.403281	0.293327	
0.257211	0.955130	0.134876	0.811947	0.803259	3.363978	0.293806	
0.265625	0.950459	0.147693	0.797951	0.787584	3.314544	0.294542	
0.274039	0.944509	0.162728	0.783100	0.770594	3.263469	0.294979	
0.279784	0.938229	0.177766	0.769427	0.754602	3.217137	0.295120	
0.282716	0.935407	0.184751	0.762986	0.747021	3.194425	0.295277	
0.288461	0.931395	0.195338	0.752872	0.735102	3.156996	0.295748	
0.296875	0.924916	0.211455	0.738663	0.717985	3.105083	0.296136	
0.305289	0.914753	0.234672	0.720661	0.695473	3.041140	0.295945	
0.311034	0.907409	0.251767	0.707701	0.678942	2.992883	0.295926	
0.313966	0.905221	0.257449	0.703063	0.673064	2.974144	0.296141	
0.319711	0.900561	0.268902	0.694335	0.661776	2.939391	0.296353	
0.328125	0.889874	0.292445	0.678952	0.640899	2.880855	0.295796	
0.336539	0.876431	0.321724	0.661281	0.615923	2.811049	0.294923	
0.342284	0.870544	0.335690	0.652468	0.603418	2.772601	0.294966	
0.345216	0.868368	0.341104	0.649034	0.598516	2.756968	0.295062	
0.350961	0.860439	0.357850	0.640313	0.585220	2.720564	0.294317	
0.359375	0.844792	0.389911	0.625331	0.561114	2.656813	0.292412	
0.367789	0.832027	0.417519	0.612609	0.540088	2.596493	0.291319	
0.373534	0.827078	0.428915	0.607283	0.531205	2.569070	0.291128	
0.376466	0.822231	0.438534	0.603703	0.524641	2.552281	0.290372	
0.382211	0.809408	0.463244	0.595424	0.508577	2.513329	0.288050	
0.390625	0.792586	0.497009	0.584505	0.486613	2.455824	0.285347	
0.399039	0.782531	0.518333	0.577621	0.472500	2.415239	0.284084	
0.404784	0.773220	0.536208	0.573195	0.462037	2.390195	0.282171	
0.407716	0.764484	0.551993	0.569907	0.453439	2.372524	0.280019	
0.413461	0.749967	0.579142	0.564368	0.438596	2.339282	0.276647	
0.421875	0.737086	0.605007	0.558973	0.424074	2.301357	0.274127	
0.430289	0.724868	0.627589	0.555389	0.412638	2.277036	0.271019	
0.436034	0.706904	0.658973	0.551820	0.398335	2.253969	0.265651	
0.438966	0.698504	0.674115	0.550179	0.391468	2.241749	0.263209	
0.444711	0.688470	0.692864	0.548062	0.382809	2.224112	0.260455	
0.453125	0.677459	0.712765	0.546210	0.374124	2.208982	0.257165	
0.461539	0.656233	0.748295	0.544355	0.360628	2.198169	0.249720	
0.467284	0.635389	0.783207	0.542997	0.348119	2.191533	0.242154	
0.470216	0.631927	0.789328	0.542720	0.345863	2.189257	0.240959	
0.475961	0.627505	0.797309	0.542308	0.342855	2.185508	0.239478	
0.484375	0.609146	0.825808	0.541885	0.334178	2.194405	0.232000	
0.492789	0.580129	0.871968	0.541471	0.320927	2.212796	0.220029	
0.498534	0.572044	0.883839	0.541370	0.317937	2.223166	0.216456	
0.501466	0.568540	0.888908	0.541311	0.316693	2.228118	0.214890	
0.507211	0.560366	0.900876	0.541210	0.313820	2.240107	0.211233	
0.515625	0.530870	0.943234	0.540786	0.304632	2.295339	0.197692	
0.524039	0.511492	0.971109	0.540346	0.299164	2.339543	0.188668	
0.529784	0.506273	0.976239	0.539913	0.298664	2.359706	0.185943	
0.532716	0.502366	0.980563	0.539623	0.298110	2.373644	0.183966	
0.538461	0.480492	1.009405	0.538231	0.293444	2.442864	0.173445	
0.546875	0.457435	1.038908	0.536297	0.289436	2.530943	0.162223	
0.555289	0.444413	1.052375	0.534345	0.288253	2.594456	0.155664	
0.561034	0.432922	1.063358	0.532138	0.287379	2.655250	0.149893	
0.563966	0.423750	1.072983	0.530448	0.286518	2.704596	0.145373	
0.569711	0.404236	1.094666	0.526772	0.284575	2.815924	0.135910	
0.578125	0.389695	1.107672	0.523017	0.283951	2.914600	0.128783	
0.586539	0.374545	1.116544	0.517453	0.283986	3.032866	0.121340	
0.592284	0.358539	1.128565	0.511820	0.283492	3.162747	0.113744	
0.595216	0.349069	1.136327	0.508493	0.283128	3.244376	0.109338	
0.600961	0.338385	1.142334	0.504012	0.283229	3.348003	0.104338	
0.609375	0.326480	1.143652	0.497127	0.283619	3.474870	0.098813	
0.617789	0.308091	1.146529	0.486357	0.283860	3.685411	0.090544	
0.623534	0.294393	1.149022	0.478301	0.283964	3.858301	0.084558	
0.626466	0.289162	1.148841	0.474873	0.284049	3.929271	0.082302	
0.632211	0.283530	1.144431	0.469903	0.284230	4.009880	0.079884	
0.640625	0.270048	1.134341	0.457949	0.284210	4.209771	0.074257	
0.649039	0.254071	1.122472	0.444071	0.284014	4.471424	0.067789	
0.654784	0.246101	1.113264	0.436283	0.283780	4.612416	0.064651	
0.657716	0.243941	1.108119	0.433371	0.283600	4.650311	0.063822	
0.663461	0.238166	1.094996	0.425695	0.282912	4.751507	0.061644	
0.671875	0.225182	1.068483	0.410041	0.281500	5.000413	0.056814	
0.680289	0.215198	1.043015	0.396989	0.279934	5.203295	0.053226	
0.686034	0.211096	1.027021	0.389987	0.278658	5.280206	0.051830	
0.688966	0.209205	1.018080	0.386268	0.277849	5.312462	0.051209	
0.694711	0.202535	0.991834	0.375246	0.275626	5.443522	0.048976	
0.703125	0.193490	0.953422	0.360278	0.272335	5.629959	0.046008	
0.711539	0.188146	0.922549	0.349170	0.269105	5.721178	0.044379	
0.717284	0.184907	0.899550	0.341202	0.266389	5.762663	0.043458	
0.720216	0.182487	0.883766	0.335873	0.264608	5.800029	0.042751	
0.725961	0.177023	0.848168	0.324410	0.260736	5.891573	0.041147	
0.734375	0.172196	0.810298	0.312637	0.256107	5.949204	0.039831	
0.742789	0.168541	0.774138	0.301508	0.251005	5.957115	0.038960	
0.748534	0.165197	0.741270	0.291845	0.246458	5.967617	0.038153	
0.751466	0.163026	0.720674	0.286074	0.243738	5.980349	0.037611	
0.757211	0.159909	0.688382	0.277155	0.239267	5.985078	0.036878	
0.765625	0.157222	0.653363	0.267154	0.233597	5.943121	0.036386	
0.774039	0.153813	0.607717	0.254606	0.226203	5.882558	0.035779	
0.779784	0.150952	0.569871	0.244779	0.220268	5.836795	0.035251	
0.782716	0.149628	0.551670	0.240150	0.217381	5.811259	0.035019	
0.788461	0.148152	0.527765	0.233752	0.213119	5.754065	0.034845	
0.796875	0.145900	0.488487	0.223228	0.205821	5.642808	0.034652	
0.805289	0.142898	0.437645	0.210446	0.196761	5.507738	0.034353	
0.811034	0.141033	0.404766	0.202393	0.190840	5.412638	0.034201	
0.813966	0.140413	0.392444	0.199246	0.188433	5.367988	0.034192	
0.819711	0.139462	0.371376	0.193626	0.184009	5.277693	0.034250	
0.828125	0.137346	0.327631	0.182725	0.175353	5.106906	0.034290	
0.836539	0.135255	0.283738	0.172176	0.166731	4.930877	0.034365	
0.842284	0.134280	0.261274	0.166624	0.162041	4.826954	0.034483	
0.845216	0.133964	0.252827	0.164379	0.160097	4.780306	0.034569	
0.850961	0.133095	0.231159	0.158894	0.155338	4.668502	0.034753	
0.859375	0.131520	0.193503	0.149891	0.147429	4.483861	0.035042	
0.867789	0.130413	0.165365	0.143071	0.141288	4.333552	0.035345	
0.873534	0.129947	0.151964	0.139596	0.138096	4.250834	0.035559	
0.876466	0.129709	0.145011	0.137785	0.136421	4.206978	0.035679	
0.882211	0.129014	0.126303	0.133235	0.132206	4.098981	0.035952	
0.890625	0.128166	0.103230	0.127682	0.126999	3.963592	0.036321	
0.899039	0.127700	0.089114	0.124051	0.123543	3.869812	0.036624	
0.904784	0.127435	0.080622	0.121789	0.121375	3.809790	0.036835	
0.907716	0.127241	0.074869	0.120344	0.119987	3.771946	0.036963	
0.913461	0.126829	0.062891	0.117423	0.117172	3.695429	0.037223	
0.921875	0.126497	0.052598	0.114791	0.114616	3.624302	0.037488	
0.930289	0.126295	0.045602	0.112856	0.112725	3.570195	0.037711	
0.936034	0.126111	0.039583	0.111263	0.111164	3.525889	0.037892	
0.938966	0.125986	0.035717	0.110289	0.110208	3.499056	0.037999	
0.944711	0.125813	0.030204	0.108878	0.108821	3.459782	0.038161	
0.953125	0.125710	0.026430	0.107796	0.107752	3.428581	0.038303	
0.961539	0.125591	0.022133	0.106574	0.106543	3.393342	0.038465	
0.967284	0.125474	0.018203	0.105525	0.105504	3.363384	0.038600	
0.970216	0.125417	0.016310	0.105027	0.105011	3.349177	0.038664	
0.975961	0.125370	0.014599	0.104539	0.104526	3.334947	0.038732	
0.984375	0.125332	0.012951	0.104017	0.104006	3.319386	0.038811	
0.992789	0.125253	0.010071	0.103195	0.103189	3.295371	0.038928	
0.998534	0.125196	0.008031	0.102633	0.102629	3.278996	0.039007	
