TITLE = "DG1DMBX32-P4RK4w10000iv80"
VARIABLES = "x" "Density" "Velocity in x" "Energy" "Pressure" "Temperature" "Fugacity"
ZONE T = "Final Time 0.10"
I = 160, J = 1, K = 1, F = POINT

0.001466	1.000000	0.000000	0.999999	0.999999	3.999998	0.282095	
0.007211	1.000000	-0.000000	1.000000	1.000000	4.000001	0.282095	
0.015625	1.000000	-0.000000	1.000000	1.000000	4.000000	0.282095	
0.024039	1.000000	0.000001	0.999999	0.999999	3.999996	0.282095	
0.029784	1.000000	-0.000001	1.000002	1.000002	4.000004	0.282095	
0.032716	1.000001	-0.000003	1.000003	1.000003	4.000008	0.282095	
0.038461	1.000000	0.000001	0.999999	0.999999	3.999998	0.282095	
0.046875	0.999999	0.000002	0.999998	0.999998	3.999994	0.282095	
0.055289	1.000002	-0.000005	1.000006	1.000006	4.000017	0.282095	
0.061034	1.000000	-0.000000	1.000001	1.000001	4.000000	0.282095	
0.063966	0.999996	0.000009	0.999989	0.999989	3.999971	0.282095	
0.069711	0.999999	0.000003	0.999996	0.999996	3.999989	0.282095	
0.078125	1.000004	-0.000010	1.000013	1.000013	4.000036	0.282095	
0.086539	0.999996	0.000009	0.999987	0.999987	3.999963	0.282095	
0.092284	0.999989	0.000024	0.999971	0.999971	3.999927	0.282094	
0.095216	1.000003	-0.000006	1.000009	1.000009	4.000024	0.282095	
0.100961	1.000012	-0.000029	1.000036	1.000036	4.000097	0.282095	
0.109375	0.999992	0.000020	0.999973	0.999973	3.999925	0.282095	
0.117789	0.999987	0.000032	0.999965	0.999965	3.999913	0.282094	
0.123534	1.000036	-0.000090	1.000108	1.000108	4.000285	0.282095	
0.126466	1.000037	-0.000099	1.000115	1.000115	4.000309	0.282094	
0.132211	0.999982	0.000051	0.999941	0.999941	3.999835	0.282096	
0.140625	0.999964	0.000083	0.999895	0.999895	3.999723	0.282095	
0.149039	1.000079	-0.000197	1.000246	1.000246	4.000672	0.282093	
0.154784	1.000057	-0.000112	1.000140	1.000140	4.000332	0.282099	
0.157716	0.999918	0.000193	0.999755	0.999755	3.999345	0.282095	
0.163461	0.999876	0.000300	0.999624	0.999624	3.998993	0.282095	
0.171875	1.000113	-0.000280	1.000367	1.000367	4.001014	0.282091	
0.180289	1.000145	-0.000355	1.000397	1.000397	4.001007	0.282100	
0.186034	0.999684	0.000766	0.999066	0.999066	3.997525	0.282093	
0.188966	0.999589	0.001074	0.998728	0.998728	3.996552	0.282100	
0.194711	0.999972	0.000024	0.999961	0.999961	3.999957	0.282088	
0.203125	1.000563	-0.001368	1.001719	1.001718	4.004617	0.282091	
0.211539	0.999849	0.000407	0.999414	0.999414	3.998260	0.282114	
0.217284	0.998949	0.002426	0.997018	0.997015	3.992257	0.282071	
0.220216	0.999270	0.001930	0.997724	0.997722	3.993803	0.282108	
0.225961	1.000563	-0.001462	1.001840	1.001838	4.005101	0.282074	
0.234375	1.001465	-0.003537	1.004355	1.004349	4.011517	0.282102	
0.242789	0.997109	0.007258	0.990893	0.990867	3.974958	0.282164	
0.248534	0.990239	0.023969	0.970864	0.970579	3.920588	0.282156	
0.251466	0.986294	0.034001	0.959148	0.958577	3.887593	0.282222	
0.257211	0.977150	0.056294	0.933845	0.932297	3.816392	0.282202	
0.265625	0.962582	0.091981	0.895239	0.891167	3.703236	0.282210	
0.274039	0.947406	0.129069	0.857587	0.849696	3.587463	0.282207	
0.279784	0.936828	0.155003	0.832805	0.821551	3.507795	0.282207	
0.282716	0.931413	0.168326	0.820553	0.807358	3.467238	0.282212	
0.288461	0.920675	0.194614	0.797229	0.779794	3.387924	0.282205	
0.296875	0.904805	0.233428	0.764834	0.740183	3.272235	0.282200	
0.305289	0.888805	0.272549	0.734656	0.701645	3.157698	0.282193	
0.311034	0.877833	0.299432	0.715339	0.675986	3.080248	0.282192	
0.313966	0.872224	0.313193	0.705885	0.663106	3.040992	0.282192	
0.319711	0.861193	0.340248	0.688124	0.638274	2.964604	0.282190	
0.328125	0.844937	0.380003	0.663845	0.602840	2.853893	0.282183	
0.336539	0.828581	0.419977	0.641618	0.568545	2.744668	0.282173	
0.342284	0.817366	0.447444	0.627613	0.545792	2.670981	0.282167	
0.345216	0.811631	0.461519	0.620829	0.534390	2.633663	0.282165	
0.350961	0.800351	0.489188	0.608185	0.512421	2.560979	0.282165	
0.359375	0.783707	0.529903	0.591154	0.481123	2.455627	0.282161	
0.367789	0.766932	0.570918	0.575911	0.450922	2.351820	0.282150	
0.373534	0.755426	0.599092	0.566524	0.430959	2.281940	0.282140	
0.376466	0.749546	0.613502	0.562046	0.420987	2.246626	0.282135	
0.382211	0.738012	0.641747	0.553858	0.401887	2.178210	0.282123	
0.390625	0.721159	0.683002	0.543188	0.374981	2.079879	0.282122	
0.399039	0.704357	0.724102	0.534056	0.349401	1.984224	0.282113	
0.404784	0.692963	0.752025	0.528680	0.332731	1.920625	0.282107	
0.407716	0.687181	0.766161	0.526206	0.324517	1.888978	0.282087	
0.413461	0.676150	0.793284	0.521854	0.309103	1.828608	0.282103	
0.421875	0.660114	0.832252	0.516406	0.287794	1.743905	0.282022	
0.430289	0.647085	0.864229	0.512741	0.271090	1.675760	0.282020	
0.436034	0.643775	0.872167	0.511991	0.267139	1.659825	0.281922	
0.438966	0.645069	0.868695	0.512347	0.268953	1.667745	0.281817	
0.444711	0.648932	0.859582	0.513401	0.273658	1.686822	0.281897	
0.453125	0.650201	0.856452	0.513631	0.275167	1.692812	0.281948	
0.461539	0.646525	0.864999	0.512666	0.270794	1.675380	0.281808	
0.467284	0.647012	0.864135	0.512830	0.271258	1.676987	0.281886	
0.470216	0.648359	0.860734	0.513197	0.273024	1.684402	0.281850	
0.475961	0.649839	0.857270	0.513634	0.274847	1.691785	0.281876	
0.484375	0.648380	0.860506	0.513118	0.273065	1.684600	0.281842	
0.492789	0.646122	0.865747	0.512588	0.270449	1.674289	0.281724	
0.498534	0.648651	0.860352	0.513310	0.273242	1.684987	0.281928	
0.501466	0.650204	0.856622	0.513726	0.275166	1.692798	0.281950	
0.507211	0.649881	0.856713	0.513651	0.275158	1.693591	0.281744	
0.515625	0.647036	0.863479	0.512754	0.271540	1.678673	0.281754	
0.524039	0.646326	0.864228	0.512635	0.271268	1.678831	0.281432	
0.529784	0.649759	0.856206	0.513563	0.275397	1.695377	0.281543	
0.532716	0.650222	0.854601	0.513658	0.276216	1.699208	0.281426	
0.538461	0.648904	0.859490	0.513378	0.273698	1.687138	0.281858	
0.546875	0.647524	0.865864	0.513148	0.270417	1.670468	0.282658	
0.555289	0.644479	0.859564	0.511787	0.273700	1.698737	0.278979	
0.561034	0.645318	0.854701	0.511862	0.276155	1.711747	0.278278	
0.563966	0.646848	0.855969	0.512079	0.275112	1.701244	0.279798	
0.569711	0.660363	0.863788	0.518031	0.271673	1.645598	0.290433	
0.578125	0.623833	0.866336	0.504915	0.270810	1.736429	0.267094	
0.586539	0.442397	0.862436	0.440366	0.275840	2.494045	0.158047	
0.592284	0.286203	0.871265	0.383445	0.274816	3.840865	0.082392	
0.595216	0.228449	0.873288	0.361578	0.274467	4.805759	0.058794	
0.600961	0.176368	0.872079	0.339364	0.272298	6.175671	0.040041	
0.609375	0.169550	0.862432	0.335291	0.272237	6.422576	0.037746	
0.617789	0.173291	0.870359	0.336094	0.270457	6.242831	0.039130	
0.623534	0.170643	0.866616	0.335579	0.271501	6.364182	0.038163	
0.626466	0.169699	0.863226	0.335393	0.272167	6.415291	0.037800	
0.632211	0.170063	0.854882	0.336567	0.274424	6.454654	0.037766	
0.640625	0.171116	0.851043	0.337662	0.275695	6.444647	0.038029	
0.649039	0.171055	0.859978	0.336874	0.273621	6.398437	0.038153	
0.654784	0.170658	0.863956	0.336277	0.272586	6.389082	0.038092	
0.657716	0.170285	0.864798	0.336057	0.272381	6.398232	0.037981	
0.663461	0.169675	0.867045	0.335265	0.271487	6.400146	0.037840	
0.671875	0.170540	0.867876	0.335202	0.270976	6.355703	0.038165	
0.680289	0.170572	0.863316	0.335746	0.272182	6.382807	0.038091	
0.686034	0.169935	0.855780	0.336639	0.274412	6.459247	0.037724	
0.688966	0.170130	0.849895	0.337236	0.275792	6.484281	0.037694	
0.694711	0.172112	0.849934	0.338291	0.276126	6.417361	0.038332	
0.703125	0.170768	0.862310	0.336662	0.273172	6.398657	0.038088	
0.711539	0.169438	0.866148	0.335733	0.272176	6.425390	0.037713	
0.717284	0.171217	0.862961	0.336275	0.272522	6.366680	0.038284	
0.720216	0.172351	0.868587	0.336140	0.271125	6.292370	0.038764	
0.725961	0.170084	0.871262	0.334898	0.270343	6.357868	0.038057	
0.734375	0.169466	0.859822	0.335676	0.273034	6.444552	0.037663	
0.742789	0.173072	0.851371	0.338115	0.275391	6.364756	0.038705	
0.748534	0.172534	0.852583	0.338527	0.275820	6.394546	0.038494	
0.751466	0.169520	0.850743	0.337820	0.276473	6.523670	0.037446	
0.757211	0.168711	0.861387	0.335689	0.273098	6.474926	0.037407	
0.765625	0.173101	0.870277	0.336315	0.270763	6.256761	0.039044	
0.774039	0.169607	0.858090	0.335975	0.273533	6.450956	0.037675	
0.779784	0.164949	0.879077	0.331384	0.267649	6.490477	0.036529	
0.782716	0.167828	0.876155	0.331757	0.267341	6.371777	0.037511	
0.788461	0.176883	0.852399	0.339420	0.275160	6.222417	0.040007	
0.796875	0.168378	0.859027	0.338738	0.276613	6.571247	0.037058	
0.805289	0.168723	0.855211	0.337135	0.275434	6.529864	0.037252	
0.811034	0.179422	0.833215	0.337645	0.275363	6.138912	0.040856	
0.813966	0.175849	0.845570	0.320529	0.257664	5.861021	0.040981	
0.819711	0.168013	0.943842	0.363555	0.288719	6.873736	0.036155	
0.828125	0.157884	0.669321	0.264293	0.228928	5.799914	0.036987	
0.836539	0.124226	-0.100599	0.079464	0.078836	2.538456	0.043990	
0.842284	0.111452	-0.151584	0.088635	0.087355	3.135166	0.035513	
0.845216	0.144588	0.243045	0.139994	0.135723	3.754753	0.042099	
0.850961	0.121720	-0.031933	0.098142	0.098080	3.223133	0.038251	
0.859375	0.125004	-0.003152	0.098288	0.098287	3.145086	0.039768	
0.867789	0.126958	0.030794	0.105240	0.105179	3.313844	0.039348	
0.873534	0.121353	-0.050162	0.092928	0.092775	3.058020	0.039152	
0.876466	0.124700	-0.017094	0.097097	0.097079	3.113994	0.039869	
0.882211	0.126141	0.021453	0.103397	0.103368	3.277868	0.039308	
0.890625	0.124436	-0.010063	0.098416	0.098410	3.163410	0.039472	
0.899039	0.125269	0.004364	0.100709	0.100708	3.215738	0.039412	
0.904784	0.125381	0.008195	0.101035	0.101031	3.223168	0.039402	
0.907716	0.124449	-0.010802	0.098607	0.098600	3.169164	0.039441	
0.913461	0.125037	0.000702	0.100078	0.100078	3.201556	0.039426	
0.921875	0.125041	0.000751	0.100106	0.100106	3.202331	0.039423	
0.930289	0.124925	-0.001303	0.099818	0.099818	3.196088	0.039424	
0.936034	0.125093	0.001460	0.100201	0.100201	3.204056	0.039428	
0.938966	0.125049	0.000967	0.100149	0.100148	3.203485	0.039418	
0.944711	0.124957	-0.000734	0.099891	0.099891	3.197600	0.039425	
0.953125	0.125018	0.000298	0.100044	0.100044	3.200962	0.039424	
0.961539	0.124995	-0.000074	0.099989	0.099989	3.199767	0.039424	
0.967284	0.124981	-0.000340	0.099955	0.099955	3.199038	0.039424	
0.970216	0.125015	0.000281	0.100034	0.100034	3.200686	0.039425	
0.975961	0.125002	0.000028	0.100006	0.100006	3.200138	0.039424	
0.984375	0.124997	-0.000047	0.099993	0.099993	3.199845	0.039424	
0.992789	0.125003	0.000053	0.100007	0.100007	3.200144	0.039424	
0.998534	0.124999	-0.000033	0.099998	0.099998	3.199961	0.039424	
