TITLE = "DG1DBEX16-P4RK4w100iv80"
VARIABLES = "x" "Density" "Velocity in x" "Energy" "Pressure" "Temperature" "Fugacity"
ZONE T = "Final Time 0.10"
I = 80, J = 1, K = 1, F = POINT

0.002932	1.261366	0.000002	1.118878	1.118878	3.998604	0.282293	
0.014423	1.261366	0.000003	1.118875	1.118875	3.998602	0.282293	
0.031250	1.261365	0.000006	1.118868	1.118868	3.998595	0.282293	
0.048077	1.261361	0.000014	1.118852	1.118852	3.998575	0.282293	
0.059568	1.261359	0.000022	1.118832	1.118832	3.998558	0.282293	
0.065432	1.261355	0.000032	1.118809	1.118809	3.998535	0.282293	
0.076923	1.261336	0.000081	1.118721	1.118721	3.998413	0.282293	
0.093750	1.261286	0.000213	1.118444	1.118444	3.997551	0.282308	
0.110577	1.261178	0.000489	1.117881	1.117881	3.995780	0.282338	
0.122068	1.261041	0.000840	1.117192	1.117192	3.993824	0.282369	
0.127932	1.260937	0.001098	1.116690	1.116689	3.992081	0.282399	
0.139423	1.260637	0.001830	1.115274	1.115272	3.988552	0.282444	
0.156250	1.259837	0.003747	1.111679	1.111670	3.978081	0.282595	
0.173077	1.258297	0.007324	1.105197	1.105163	3.960280	0.282822	
0.184568	1.256575	0.011224	1.098346	1.098267	3.941407	0.283048	
0.190432	1.255413	0.013812	1.093894	1.093774	3.929321	0.283184	
0.201923	1.252449	0.020300	1.082994	1.082736	3.899659	0.283501	
0.218750	1.246058	0.033915	1.061104	1.060387	3.839614	0.284091	
0.235577	1.236651	0.053346	1.031619	1.029859	3.758898	0.284770	
0.247068	1.228208	0.070361	1.007196	1.004156	3.691250	0.285269	
0.252932	1.223225	0.080265	0.993512	0.989572	3.652966	0.285525	
0.264423	1.212086	0.102104	0.964583	0.958265	3.570811	0.286024	
0.281250	1.192445	0.139803	0.918327	0.906674	3.435140	0.286704	
0.298077	1.168915	0.183994	0.869397	0.849611	3.284970	0.287247	
0.309568	1.150721	0.217603	0.835646	0.808403	3.175388	0.287534	
0.315432	1.140804	0.235750	0.818581	0.786879	3.117959	0.287640	
0.326923	1.120222	0.273106	0.785857	0.744080	3.002839	0.287776	
0.343750	1.087564	0.331617	0.740701	0.680902	2.830304	0.287776	
0.360577	1.052338	0.393848	0.700121	0.618504	2.656697	0.287489	
0.372068	1.027086	0.437957	0.675591	0.577090	2.539243	0.287111	
0.377932	1.013904	0.460829	0.664159	0.556501	2.480144	0.286855	
0.389423	0.987629	0.506096	0.643971	0.517488	2.366610	0.286220	
0.406250	0.948579	0.572518	0.619741	0.464280	2.209242	0.284891	
0.423077	0.909689	0.637393	0.601660	0.416871	2.066510	0.283003	
0.434568	0.883803	0.679605	0.592550	0.388452	1.980262	0.281326	
0.440432	0.870929	0.700190	0.588807	0.375314	1.940669	0.280314	
0.451923	0.846573	0.738119	0.583034	0.352419	1.872519	0.278003	
0.468750	0.813160	0.786790	0.577545	0.325857	1.798587	0.273608	
0.485577	0.781921	0.826557	0.574356	0.307253	1.758271	0.267611	
0.497068	0.760508	0.849303	0.572722	0.298439	1.751057	0.262159	
0.502932	0.749105	0.859864	0.571890	0.294959	1.754216	0.258805	
0.514423	0.724476	0.879417	0.569833	0.289687	1.774394	0.250739	
0.531250	0.679917	0.907839	0.564982	0.284798	1.844072	0.234321	
0.548077	0.620168	0.939190	0.555707	0.282189	1.980952	0.210621	
0.559568	0.570267	0.962750	0.545714	0.281427	2.128654	0.190185	
0.565432	0.542465	0.975149	0.539244	0.281325	2.225625	0.178675	
0.576923	0.485596	0.999146	0.524037	0.281653	2.463872	0.155051	
0.593750	0.403777	1.028764	0.496836	0.283166	2.937355	0.121353	
0.610577	0.333123	1.045040	0.467211	0.285307	3.546778	0.093152	
0.622068	0.294221	1.045289	0.447484	0.286747	4.012416	0.078244	
0.627932	0.277406	1.042147	0.437986	0.287345	4.255609	0.071976	
0.639423	0.250002	1.029831	0.420774	0.288203	4.717973	0.062067	
0.656250	0.221222	1.001453	0.399455	0.288522	5.315534	0.052128	
0.673077	0.202584	0.967608	0.382607	0.287771	5.777761	0.045996	
0.684568	0.193967	0.944659	0.373307	0.286760	6.007191	0.043277	
0.690432	0.190506	0.933375	0.369100	0.286116	6.098061	0.042219	
0.701923	0.185128	0.912481	0.361709	0.284638	6.240995	0.040603	
0.718750	0.179597	0.884134	0.352132	0.281938	6.370605	0.039032	
0.735577	0.175681	0.856374	0.342832	0.278412	6.428940	0.038035	
0.747068	0.173429	0.835894	0.335884	0.275295	6.437436	0.037537	
0.752932	0.172331	0.824471	0.331985	0.273414	6.430357	0.037325	
0.764423	0.170096	0.798650	0.323109	0.268862	6.407628	0.036918	
0.781250	0.166374	0.749435	0.306287	0.259565	6.325391	0.036359	
0.798077	0.161493	0.676927	0.282216	0.245216	6.152219	0.035800	
0.809568	0.157211	0.607347	0.260092	0.231096	5.953372	0.035437	
0.815432	0.154678	0.563967	0.246717	0.222118	5.818892	0.035271	
0.826923	0.149038	0.461589	0.216619	0.200742	5.454864	0.035105	
0.843750	0.140319	0.283735	0.168760	0.163112	4.709736	0.035558	
0.860577	0.133792	0.133699	0.132120	0.130924	3.967659	0.036903	
0.872068	0.131306	0.072180	0.117877	0.117535	3.629779	0.037839	
0.877932	0.130633	0.054168	0.113715	0.113524	3.525798	0.038186	
0.889423	0.129726	0.030476	0.108368	0.108308	3.385506	0.038685	
0.906250	0.129076	0.013197	0.104491	0.104480	3.282745	0.039078	
0.923077	0.128825	0.006201	0.102883	0.102881	3.239041	0.039259	
0.934568	0.128738	0.003756	0.102317	0.102316	3.224415	0.039319	
0.940432	0.128706	0.002905	0.102126	0.102126	3.220295	0.039334	
0.951923	0.128669	0.001785	0.101862	0.101862	3.210800	0.039380	
0.968750	0.128638	0.000865	0.101650	0.101650	3.206738	0.039395	
0.985577	0.128623	0.000371	0.101543	0.101543	3.203451	0.039410	
0.997068	0.128618	0.000149	0.101496	0.101496	3.200661	0.039425	
