TITLE = "DG1DMBX32-P4RK3w10iv80"
VARIABLES = "x" "Density" "Velocity in x" "Energy" "Pressure" "Temperature" "Fugacity"
ZONE T = "Final Time 0.10"
I = 160, J = 1, K = 1, F = POINT

0.001466	1.000000	-0.000000	1.000000	1.000000	4.000000	0.282095	
0.007211	1.000000	-0.000000	1.000000	1.000000	4.000000	0.282095	
0.015625	1.000000	-0.000000	1.000000	1.000000	4.000000	0.282095	
0.024039	1.000000	0.000000	1.000000	1.000000	4.000000	0.282095	
0.029784	1.000000	-0.000000	1.000000	1.000000	4.000000	0.282095	
0.032716	1.000000	0.000000	1.000000	1.000000	4.000000	0.282095	
0.038461	1.000000	0.000000	1.000000	1.000000	4.000000	0.282095	
0.046875	1.000000	-0.000000	1.000000	1.000000	4.000000	0.282095	
0.055289	1.000000	0.000000	1.000000	1.000000	4.000000	0.282095	
0.061034	1.000000	-0.000000	1.000000	1.000000	4.000000	0.282095	
0.063966	1.000000	-0.000000	1.000000	1.000000	4.000000	0.282095	
0.069711	1.000000	0.000000	1.000000	1.000000	4.000000	0.282095	
0.078125	1.000000	-0.000000	1.000000	1.000000	4.000000	0.282095	
0.086539	1.000000	0.000000	1.000000	1.000000	4.000000	0.282095	
0.092284	1.000000	-0.000000	1.000000	1.000000	4.000000	0.282095	
0.095216	1.000000	-0.000000	1.000000	1.000000	4.000000	0.282095	
0.100961	1.000000	0.000000	1.000000	1.000000	4.000000	0.282095	
0.109375	1.000000	-0.000000	1.000000	1.000000	4.000000	0.282095	
0.117789	1.000000	0.000000	1.000000	1.000000	4.000000	0.282095	
0.123534	1.000000	0.000000	1.000000	1.000000	4.000000	0.282095	
0.126466	1.000000	-0.000000	1.000000	1.000000	4.000000	0.282095	
0.132211	1.000000	0.000000	1.000000	1.000000	4.000000	0.282095	
0.140625	1.000000	0.000000	1.000000	1.000000	4.000000	0.282095	
0.149039	1.000000	-0.000000	1.000000	1.000000	4.000000	0.282095	
0.154784	1.000000	0.000000	1.000000	1.000000	4.000000	0.282095	
0.157716	1.000000	-0.000000	1.000000	1.000000	4.000000	0.282095	
0.163461	1.000000	-0.000000	1.000000	1.000000	4.000000	0.282095	
0.171875	1.000000	0.000000	1.000000	1.000000	4.000000	0.282095	
0.180289	1.000000	-0.000000	1.000000	1.000000	4.000000	0.282095	
0.186034	1.000000	0.000000	1.000000	1.000000	4.000000	0.282095	
0.188966	1.000000	0.000000	1.000000	1.000000	4.000000	0.282095	
0.194711	1.000000	-0.000000	1.000000	1.000000	4.000000	0.282095	
0.203125	1.000000	0.000000	1.000000	1.000000	4.000000	0.282095	
0.211539	1.000000	0.000000	1.000000	1.000000	4.000000	0.282095	
0.217284	1.000000	0.000000	1.000000	1.000000	4.000000	0.282095	
0.220216	1.000000	0.000000	1.000000	1.000000	4.000000	0.282095	
0.225961	1.000000	0.000000	1.000000	1.000000	3.999999	0.282095	
0.234375	1.000000	0.000000	0.999999	0.999999	3.999998	0.282095	
0.242789	1.000000	0.000000	0.999999	0.999999	3.999994	0.282095	
0.248534	1.000000	0.000001	0.999997	0.999997	3.999990	0.282095	
0.251466	1.000000	0.000001	0.999996	0.999996	3.999987	0.282095	
0.257211	1.000000	0.000002	0.999994	0.999994	3.999976	0.282096	
0.265625	0.999999	0.000004	0.999986	0.999986	3.999946	0.282097	
0.274039	0.999999	0.000009	0.999969	0.999969	3.999881	0.282099	
0.279784	0.999998	0.000016	0.999948	0.999948	3.999802	0.282101	
0.282716	0.999997	0.000021	0.999933	0.999933	3.999744	0.282103	
0.288461	0.999995	0.000035	0.999889	0.999889	3.999578	0.282108	
0.296875	0.999988	0.000073	0.999776	0.999776	3.999153	0.282121	
0.305289	0.999975	0.000149	0.999561	0.999561	3.998345	0.282146	
0.311034	0.999959	0.000238	0.999317	0.999317	3.997431	0.282174	
0.313966	0.999946	0.000302	0.999148	0.999148	3.996810	0.282192	
0.319711	0.999914	0.000473	0.998700	0.998700	3.995145	0.282242	
0.328125	0.999831	0.000892	0.997649	0.997649	3.991271	0.282355	
0.336539	0.999673	0.001641	0.995867	0.995866	3.984766	0.282541	
0.342284	0.999503	0.002442	0.994029	0.994026	3.978080	0.282730	
0.345216	0.999376	0.002982	0.992832	0.992828	3.973792	0.282847	
0.350961	0.999061	0.004359	0.989858	0.989848	3.963115	0.283138	
0.359375	0.998328	0.007416	0.983562	0.983535	3.940728	0.283733	
0.367789	0.997081	0.012270	0.974176	0.974100	3.907810	0.284570	
0.373534	0.995840	0.016997	0.965485	0.965341	3.877496	0.285324	
0.376466	0.994997	0.019975	0.960214	0.960016	3.859372	0.285751	
0.382211	0.992958	0.027113	0.948050	0.947685	3.817622	0.286721	
0.390625	0.988721	0.041306	0.925383	0.924539	3.740345	0.288432	
0.399039	0.982359	0.061056	0.896491	0.894660	3.642906	0.290383	
0.404784	0.976621	0.078317	0.873144	0.870149	3.563915	0.291869	
0.407716	0.973071	0.088433	0.860174	0.856369	3.520273	0.292605	
0.413461	0.964817	0.111152	0.832831	0.826871	3.428097	0.293997	
0.421875	0.949594	0.151504	0.789164	0.778265	3.278310	0.295895	
0.430289	0.929426	0.201028	0.743051	0.724271	3.117069	0.297007	
0.436034	0.912908	0.240244	0.711467	0.685122	3.001932	0.297270	
0.438966	0.903712	0.261673	0.695703	0.664763	2.942365	0.297240	
0.444711	0.882606	0.307659	0.665967	0.624196	2.828875	0.296064	
0.453125	0.847929	0.381844	0.626833	0.565017	2.665397	0.293024	
0.461539	0.806861	0.464118	0.594912	0.508010	2.518452	0.286851	
0.467284	0.775227	0.524977	0.577934	0.471107	2.430807	0.280530	
0.470216	0.760834	0.554398	0.570872	0.453948	2.386579	0.277861	
0.475961	0.724646	0.619327	0.560077	0.421103	2.324462	0.268157	
0.484375	0.671346	0.714481	0.550728	0.379373	2.260370	0.251931	
0.492789	0.615999	0.807901	0.547289	0.346256	2.248422	0.231775	
0.498534	0.569579	0.882727	0.546804	0.324894	2.281641	0.212743	
0.501466	0.560832	0.896092	0.546709	0.321541	2.293316	0.208942	
0.507211	0.514028	0.965928	0.546220	0.306421	2.384470	0.187809	
0.515625	0.457146	1.043340	0.542745	0.293929	2.571861	0.160826	
0.524039	0.401680	1.105936	0.533282	0.287636	2.864331	0.133904	
0.529784	0.363890	1.143018	0.522395	0.284686	3.129362	0.116056	
0.532716	0.348731	1.148356	0.515301	0.285362	3.273143	0.108751	
0.538461	0.315819	1.161880	0.498368	0.285195	3.612132	0.093752	
0.546875	0.273613	1.153360	0.466986	0.285000	4.166471	0.075627	
0.555289	0.238777	1.105623	0.429305	0.283365	4.746932	0.061832	
0.561034	0.218056	1.055446	0.401155	0.279701	5.130796	0.054313	
0.563966	0.209169	1.022160	0.386374	0.277103	5.299126	0.051265	
0.569711	0.193391	0.947191	0.356953	0.270200	5.588682	0.046154	
0.578125	0.174415	0.820603	0.314220	0.255496	5.859492	0.040652	
0.586539	0.160195	0.680344	0.273433	0.236358	5.901771	0.037203	
0.592284	0.152409	0.583714	0.247396	0.221432	5.811493	0.035669	
0.595216	0.149021	0.535377	0.234815	0.213458	5.729597	0.035125	
0.600961	0.143453	0.443574	0.211681	0.197568	5.508913	0.034483	
0.609375	0.137064	0.322489	0.181903	0.174776	5.100550	0.034241	
0.617789	0.132631	0.222184	0.157538	0.154265	4.652465	0.034692	
0.623534	0.130439	0.167171	0.144120	0.142297	4.363641	0.035230	
0.626466	0.129527	0.143390	0.138264	0.136932	4.228679	0.035537	
0.632211	0.128173	0.104602	0.128578	0.127877	3.990779	0.036199	
0.640625	0.126814	0.063838	0.118144	0.117885	3.718363	0.037104	
0.649039	0.126019	0.037782	0.111193	0.111103	3.526559	0.037860	
0.654784	0.125678	0.025981	0.107928	0.107885	3.433695	0.038265	
0.657716	0.125541	0.021334	0.106614	0.106586	3.396050	0.038435	
0.663461	0.125357	0.014419	0.104599	0.104586	3.337206	0.038715	
0.671875	0.125187	0.007922	0.102640	0.102636	3.279444	0.039002	
0.680289	0.125096	0.004252	0.101476	0.101475	3.244715	0.039181	
0.686034	0.125061	0.002736	0.100977	0.100976	3.229665	0.039262	
0.688966	0.125046	0.002168	0.100787	0.100787	3.223987	0.039292	
0.694711	0.125029	0.001374	0.100512	0.100511	3.215621	0.039337	
0.703125	0.125014	0.000685	0.100265	0.100265	3.208136	0.039378	
0.711539	0.125006	0.000334	0.100134	0.100134	3.204136	0.039401	
0.717284	0.125004	0.000202	0.100083	0.100083	3.202552	0.039409	
0.720216	0.125003	0.000154	0.100065	0.100065	3.201992	0.039413	
0.725961	0.125002	0.000092	0.100039	0.100039	3.201214	0.039417	
0.734375	0.125001	0.000042	0.100018	0.100018	3.200571	0.039421	
0.742789	0.125000	0.000018	0.100009	0.100009	3.200265	0.039422	
0.748534	0.125000	0.000011	0.100005	0.100005	3.200153	0.039423	
0.751466	0.125000	0.000008	0.100004	0.100004	3.200115	0.039423	
0.757211	0.125000	0.000004	0.100002	0.100002	3.200067	0.039424	
0.765625	0.125000	0.000002	0.100001	0.100001	3.200028	0.039424	
0.774039	0.125000	0.000001	0.100000	0.100000	3.200012	0.039424	
0.779784	0.125000	0.000000	0.100000	0.100000	3.200007	0.039424	
0.782716	0.125000	0.000000	0.100000	0.100000	3.200005	0.039424	
0.788461	0.125000	0.000000	0.100000	0.100000	3.200003	0.039424	
0.796875	0.125000	0.000000	0.100000	0.100000	3.200001	0.039424	
0.805289	0.125000	0.000000	0.100000	0.100000	3.200000	0.039424	
0.811034	0.125000	0.000000	0.100000	0.100000	3.200000	0.039424	
0.813966	0.125000	0.000000	0.100000	0.100000	3.200000	0.039424	
0.819711	0.125000	-0.000000	0.100000	0.100000	3.200000	0.039424	
0.828125	0.125000	0.000000	0.100000	0.100000	3.200000	0.039424	
0.836539	0.125000	-0.000000	0.100000	0.100000	3.200000	0.039424	
0.842284	0.125000	-0.000000	0.100000	0.100000	3.200000	0.039424	
0.845216	0.125000	0.000000	0.100000	0.100000	3.200000	0.039424	
0.850961	0.125000	-0.000000	0.100000	0.100000	3.200000	0.039424	
0.859375	0.125000	0.000000	0.100000	0.100000	3.200000	0.039424	
0.867789	0.125000	0.000000	0.100000	0.100000	3.200000	0.039424	
0.873534	0.125000	-0.000000	0.100000	0.100000	3.200000	0.039424	
0.876466	0.125000	0.000000	0.100000	0.100000	3.200000	0.039424	
0.882211	0.125000	0.000000	0.100000	0.100000	3.200000	0.039424	
0.890625	0.125000	-0.000000	0.100000	0.100000	3.200000	0.039424	
0.899039	0.125000	0.000000	0.100000	0.100000	3.200000	0.039424	
0.904784	0.125000	-0.000000	0.100000	0.100000	3.200000	0.039424	
0.907716	0.125000	-0.000000	0.100000	0.100000	3.200000	0.039424	
0.913461	0.125000	0.000000	0.100000	0.100000	3.200000	0.039424	
0.921875	0.125000	-0.000000	0.100000	0.100000	3.200000	0.039424	
0.930289	0.125000	0.000000	0.100000	0.100000	3.200000	0.039424	
0.936034	0.125000	-0.000000	0.100000	0.100000	3.200000	0.039424	
0.938966	0.125000	-0.000000	0.100000	0.100000	3.200000	0.039424	
0.944711	0.125000	0.000000	0.100000	0.100000	3.200000	0.039424	
0.953125	0.125000	-0.000000	0.100000	0.100000	3.200000	0.039424	
0.961539	0.125000	0.000000	0.100000	0.100000	3.200000	0.039424	
0.967284	0.125000	0.000000	0.100000	0.100000	3.200000	0.039424	
0.970216	0.125000	-0.000000	0.100000	0.100000	3.200000	0.039424	
0.975961	0.125000	0.000000	0.100000	0.100000	3.200000	0.039424	
0.984375	0.125000	-0.000000	0.100000	0.100000	3.200000	0.039424	
0.992789	0.125000	0.000000	0.100000	0.100000	3.200000	0.039424	
0.998534	0.125000	0.000000	0.100000	0.100000	3.200000	0.039424	
