TITLE = "DG1DMBX16-P4RK4w10iv80"
VARIABLES = "x" "Density" "Velocity in x" "Energy" "Pressure" "Temperature" "Fugacity"
ZONE T = "Final Time 0.10"
I = 80, J = 1, K = 1, F = POINT

0.002932	0.999827	0.000832	0.997862	0.997862	3.992136	0.282324	
0.014423	0.999764	0.001127	0.997211	0.997210	3.989781	0.282389	
0.031250	0.999633	0.001726	0.995902	0.995900	3.985063	0.282519	
0.048077	0.999433	0.002602	0.994033	0.994029	3.978375	0.282700	
0.059568	0.999233	0.003427	0.992331	0.992325	3.972349	0.282858	
0.065432	0.999115	0.003929	0.991304	0.991296	3.968697	0.282954	
0.076923	0.998822	0.005118	0.988925	0.988912	3.960313	0.283171	
0.093750	0.998219	0.007471	0.984384	0.984356	3.944452	0.283568	
0.110577	0.997355	0.010750	0.978290	0.978232	3.923305	0.284085	
0.122068	0.996555	0.013675	0.973046	0.972953	3.905267	0.284512	
0.127932	0.996054	0.015438	0.969974	0.969855	3.894789	0.284752	
0.139423	0.994929	0.019429	0.963132	0.962944	3.871408	0.285288	
0.156250	0.992742	0.026871	0.950898	0.950540	3.829958	0.286197	
0.173077	0.989756	0.036596	0.935729	0.935067	3.778978	0.287254	
0.184568	0.987223	0.044712	0.923575	0.922588	3.738112	0.288081	
0.190432	0.985684	0.049407	0.916788	0.915585	3.715531	0.288504	
0.201923	0.982267	0.059730	0.902320	0.900567	3.667302	0.289388	
0.218750	0.976178	0.077673	0.878450	0.875506	3.587484	0.290776	
0.235577	0.968434	0.099397	0.851586	0.846802	3.497615	0.292152	
0.247068	0.962125	0.116571	0.831709	0.825172	3.430621	0.293069	
0.252932	0.958701	0.125955	0.821199	0.813595	3.394571	0.293573	
0.264423	0.950951	0.146080	0.799906	0.789759	3.321978	0.294364	
0.281250	0.937860	0.179195	0.767606	0.752548	3.209638	0.295349	
0.298077	0.922700	0.216475	0.734827	0.713208	3.091830	0.296059	
0.309568	0.910536	0.244721	0.712602	0.685337	3.010697	0.296066	
0.315432	0.904178	0.259762	0.701421	0.670916	2.968069	0.296103	
0.326923	0.890874	0.290498	0.680121	0.642531	2.884946	0.295919	
0.343750	0.868672	0.339310	0.650683	0.600677	2.765958	0.294685	
0.360577	0.844497	0.391497	0.624073	0.559355	2.649413	0.292717	
0.372068	0.827014	0.428437	0.607966	0.532064	2.573418	0.290859	
0.377932	0.816241	0.449166	0.600352	0.518014	2.538536	0.289036	
0.389423	0.797178	0.488304	0.586901	0.491861	2.468011	0.286291	
0.406250	0.767463	0.547138	0.570729	0.455856	2.375910	0.280910	
0.423077	0.733756	0.609782	0.558563	0.422146	2.301287	0.272892	
0.434568	0.713522	0.649212	0.552473	0.402107	2.254210	0.268124	
0.440432	0.700860	0.671136	0.550049	0.392207	2.238435	0.264292	
0.451923	0.674878	0.715966	0.546306	0.373332	2.212740	0.255968	
0.468750	0.640754	0.775153	0.543073	0.350571	2.188492	0.244368	
0.485577	0.602723	0.836080	0.541754	0.331093	2.197311	0.229402	
0.497068	0.573112	0.882563	0.541399	0.318195	2.220824	0.216974	
0.502932	0.567496	0.890543	0.541285	0.316254	2.229120	0.214447	
0.514423	0.537360	0.933861	0.540921	0.306606	2.282316	0.200679	
0.531250	0.497242	0.989227	0.539553	0.296260	2.383230	0.181723	
0.548077	0.459754	1.033863	0.536191	0.290482	2.527277	0.163164	
0.559568	0.430970	1.067726	0.532289	0.286628	2.660308	0.149075	
0.565432	0.416751	1.083961	0.529762	0.284927	2.734743	0.142182	
0.576923	0.393339	1.101885	0.523450	0.284664	2.894839	0.130431	
0.593750	0.355205	1.132422	0.510967	0.283213	3.189287	0.112217	
0.610577	0.321641	1.145815	0.494741	0.283601	3.526932	0.096627	
0.622068	0.300579	1.145891	0.481569	0.284229	3.782422	0.087196	
0.627932	0.289020	1.147482	0.474250	0.283972	3.930139	0.082252	
0.639423	0.270434	1.137253	0.459078	0.284196	4.203544	0.074418	
0.656250	0.245770	1.109295	0.434866	0.283652	4.616544	0.064535	
0.673077	0.224264	1.067482	0.409167	0.281390	5.018904	0.056478	
0.684568	0.211969	1.029453	0.391160	0.278840	5.261889	0.052135	
0.690432	0.206250	1.007476	0.381863	0.277191	5.375824	0.050188	
0.701923	0.195525	0.962611	0.363639	0.273050	5.585968	0.046674	
0.718750	0.182670	0.887344	0.337159	0.265244	5.808166	0.042763	
0.735577	0.171842	0.805497	0.311092	0.255344	5.943686	0.039767	
0.747068	0.165475	0.747132	0.293659	0.247475	5.982179	0.038170	
0.752932	0.162677	0.716601	0.284909	0.243140	5.978475	0.037537	
0.764423	0.157420	0.655974	0.267950	0.234081	5.947949	0.036417	
0.781250	0.150749	0.566567	0.243820	0.219625	5.827574	0.035232	
0.798077	0.145174	0.477520	0.220624	0.204073	5.622861	0.034541	
0.809568	0.141825	0.417921	0.205459	0.193073	5.445403	0.034290	
0.815432	0.140249	0.388279	0.197993	0.187421	5.345408	0.034224	
0.826923	0.137532	0.332253	0.184000	0.176408	5.130690	0.034256	
0.843750	0.134115	0.256575	0.165333	0.160918	4.799422	0.034539	
0.860577	0.131447	0.191484	0.149358	0.146949	4.471732	0.035070	
0.872068	0.130022	0.154025	0.140149	0.138606	4.264098	0.035524	
0.877932	0.129386	0.137061	0.135983	0.134768	4.166390	0.035763	
0.889423	0.128358	0.108310	0.128852	0.128099	3.991916	0.036246	
0.906250	0.127249	0.075530	0.120613	0.120250	3.779984	0.036926	
0.923077	0.126482	0.051894	0.114557	0.114387	3.617489	0.037519	
0.934568	0.126113	0.039958	0.111427	0.111326	3.530993	0.037865	
0.940432	0.125965	0.034920	0.110084	0.110007	3.493257	0.038024	
0.951923	0.125716	0.026670	0.107870	0.107826	3.430757	0.038293	
0.968750	0.125466	0.017888	0.105449	0.105429	3.361170	0.038611	
0.985577	0.125303	0.011867	0.103751	0.103742	3.311717	0.038847	
0.997068	0.125224	0.008880	0.102900	0.102895	3.286756	0.038970	
