TITLE = "DG1DFDX32-P3RK4w100iv80"
VARIABLES = "x" "Density" "Velocity in x" "Energy" "Pressure" "Temperature" "Fugacity"
ZONE T = "Final Time 0.10"
I = 128, J = 1, K = 1, F = POINT

0.002170	0.837367	0.000004	0.913177	0.913177	4.000464	0.282021	
0.010313	0.837367	0.000005	0.913175	0.913175	4.000461	0.282021	
0.020937	0.837366	0.000009	0.913169	0.913169	4.000453	0.282021	
0.029080	0.837364	0.000015	0.913161	0.913161	4.000439	0.282021	
0.033420	0.837364	0.000017	0.913158	0.913158	4.000437	0.282021	
0.041563	0.837361	0.000028	0.913140	0.913140	4.000411	0.282021	
0.052187	0.837352	0.000066	0.913087	0.913087	3.999963	0.282036	
0.060330	0.837343	0.000109	0.913024	0.913024	3.999872	0.282036	
0.064670	0.837336	0.000135	0.912984	0.912984	3.999808	0.282036	
0.072813	0.837319	0.000206	0.912880	0.912880	3.999282	0.282051	
0.083437	0.837283	0.000354	0.912669	0.912669	3.998585	0.282067	
0.091580	0.837241	0.000527	0.912424	0.912424	3.997821	0.282082	
0.095920	0.837211	0.000650	0.912249	0.912249	3.997170	0.282097	
0.104063	0.837135	0.000957	0.911820	0.911820	3.995365	0.282142	
0.114687	0.836980	0.001572	0.910972	0.910971	3.992448	0.282202	
0.122830	0.836801	0.002275	0.910018	0.910015	3.988945	0.282278	
0.127170	0.836676	0.002761	0.909364	0.909361	3.986673	0.282323	
0.135313	0.836370	0.003936	0.907802	0.907795	3.981254	0.282429	
0.145937	0.835785	0.006148	0.904915	0.904899	3.971034	0.282625	
0.154080	0.835148	0.008520	0.901876	0.901846	3.960356	0.282822	
0.158420	0.834724	0.010080	0.899903	0.899861	3.953492	0.282943	
0.166563	0.833740	0.013668	0.895434	0.895356	3.938160	0.283199	
0.177187	0.832009	0.019866	0.887894	0.887730	3.912342	0.283607	
0.185330	0.830273	0.025982	0.880637	0.880356	3.887681	0.283970	
0.189670	0.829184	0.029782	0.876210	0.875842	3.872631	0.284181	
0.197813	0.826796	0.038019	0.866795	0.866198	3.840405	0.284619	
0.208437	0.822952	0.051071	0.852343	0.851270	3.791239	0.285223	
0.216580	0.819400	0.062957	0.839621	0.837997	3.747907	0.285707	
0.220920	0.817284	0.069971	0.832294	0.830294	3.722954	0.285964	
0.229063	0.812879	0.084439	0.817574	0.814677	3.672177	0.286462	
0.239687	0.806276	0.105848	0.796692	0.792175	3.599364	0.287096	
0.247830	0.800555	0.124172	0.779612	0.773440	3.538772	0.287565	
0.252170	0.797278	0.134591	0.770207	0.762986	3.505224	0.287791	
0.260313	0.790704	0.155335	0.752116	0.742577	3.439481	0.288199	
0.270937	0.781333	0.184619	0.727938	0.714622	3.349303	0.288667	
0.279080	0.773569	0.208653	0.709223	0.692384	3.277313	0.288969	
0.283420	0.769238	0.221985	0.699258	0.680305	3.238163	0.289105	
0.291563	0.760764	0.247922	0.680699	0.657319	3.163334	0.289317	
0.302187	0.749084	0.283410	0.656992	0.626908	3.063993	0.289483	
0.310330	0.739694	0.311732	0.639409	0.603468	2.986877	0.289528	
0.314670	0.734551	0.327178	0.630296	0.590981	2.945490	0.289528	
0.322813	0.724663	0.356747	0.613765	0.567651	2.867721	0.289468	
0.333437	0.711359	0.396299	0.593442	0.537582	2.766780	0.289256	
0.341580	0.700905	0.427187	0.578934	0.514980	2.690297	0.288984	
0.345920	0.695262	0.443798	0.571603	0.503135	2.649944	0.288803	
0.354063	0.684568	0.475146	0.558639	0.481364	2.575146	0.288395	
0.364687	0.670493	0.516165	0.543318	0.453999	2.480143	0.287716	
0.372830	0.659681	0.547463	0.532826	0.433967	2.409925	0.287066	
0.377170	0.653937	0.564017	0.527678	0.423664	2.373588	0.286673	
0.385313	0.643232	0.594693	0.518847	0.405104	2.307935	0.285828	
0.395937	0.629517	0.633636	0.508913	0.382539	2.227751	0.284513	
0.404080	0.619294	0.662328	0.502471	0.366636	2.170881	0.283350	
0.408420	0.613975	0.677115	0.499433	0.358684	2.142778	0.282641	
0.416563	0.604294	0.703723	0.494436	0.344805	2.093598	0.281206	
0.427187	0.592318	0.735915	0.489185	0.328794	2.037924	0.279030	
0.435330	0.583705	0.758376	0.486029	0.318175	2.002252	0.277112	
0.439670	0.579317	0.769523	0.484619	0.313094	1.985761	0.275994	
0.447813	0.571464	0.788823	0.482420	0.304625	1.959759	0.273699	
0.458437	0.561852	0.810949	0.480288	0.295540	1.935783	0.270224	
0.466580	0.554836	0.825725	0.479093	0.289943	1.924615	0.267158	
0.470920	0.551161	0.832921	0.478577	0.287392	1.921463	0.265331	
0.479063	0.544233	0.845357	0.477771	0.283309	1.920239	0.261509	
0.489687	0.534793	0.859990	0.476928	0.279166	1.928601	0.255543	
0.497830	0.526857	0.870494	0.476322	0.276706	1.943516	0.249984	
0.502170	0.522266	0.875973	0.475983	0.275608	1.954515	0.246631	
0.510313	0.512732	0.886304	0.475245	0.273861	1.982307	0.239426	
0.520937	0.498027	0.900290	0.473937	0.272106	2.034091	0.228067	
0.529080	0.484660	0.911692	0.472505	0.271085	2.088546	0.217706	
0.533420	0.476698	0.918069	0.471537	0.270644	2.123613	0.211588	
0.541563	0.460155	0.930615	0.469254	0.269996	2.202488	0.199066	
0.552187	0.435390	0.947962	0.465121	0.269494	2.335814	0.180911	
0.560330	0.414311	0.961640	0.460943	0.269375	2.464415	0.166093	
0.564670	0.402457	0.968920	0.458316	0.269401	2.543489	0.158027	
0.572813	0.379441	0.982203	0.452650	0.269623	2.712120	0.142937	
0.583437	0.348798	0.997798	0.443838	0.270207	2.974279	0.123981	
0.591580	0.325673	1.007644	0.436169	0.270833	3.205718	0.110553	
0.595920	0.313730	1.011843	0.431818	0.271215	3.339873	0.103892	
0.604063	0.292342	1.017475	0.423302	0.271978	3.607772	0.092458	
0.614687	0.267076	1.019804	0.411851	0.272971	3.979901	0.079755	
0.622830	0.249996	1.017602	0.403087	0.273650	4.273629	0.071658	
0.627170	0.241767	1.015037	0.398506	0.273960	4.429812	0.067897	
0.635313	0.227915	1.007838	0.390170	0.274419	4.716290	0.061780	
0.645937	0.212849	0.994569	0.380016	0.274744	5.065413	0.055436	
0.654080	0.203387	0.982199	0.372862	0.274757	5.307890	0.051614	
0.658420	0.199013	0.975104	0.369295	0.274681	5.426224	0.049893	
0.666563	0.191914	0.961193	0.363051	0.274397	5.627200	0.047159	
0.677187	0.184527	0.942705	0.355766	0.273772	5.844490	0.044410	
0.685330	0.180051	0.928742	0.350768	0.273116	5.979500	0.042793	
0.689670	0.178012	0.921494	0.348289	0.272709	6.037880	0.042083	
0.697813	0.174737	0.908248	0.343914	0.271842	6.134606	0.040951	
0.708437	0.171324	0.891708	0.338636	0.270523	6.227982	0.039818	
0.716580	0.169212	0.879443	0.334781	0.269345	6.282401	0.039138	
0.720920	0.168221	0.872966	0.332751	0.268653	6.303393	0.038836	
0.729063	0.166554	0.860721	0.328901	0.267206	6.331646	0.038353	
0.739687	0.164636	0.844090	0.323623	0.264972	6.356277	0.037824	
0.747830	0.163273	0.830267	0.319191	0.262915	6.359875	0.037492	
0.752170	0.162557	0.822328	0.316632	0.261669	6.354024	0.037341	
0.760313	0.161193	0.805990	0.311332	0.258975	6.342489	0.037054	
0.770937	0.159289	0.780834	0.303157	0.254598	6.313379	0.036691	
0.779080	0.157655	0.757464	0.295606	0.250379	6.274841	0.036419	
0.783420	0.156695	0.743161	0.291015	0.247745	6.244051	0.036283	
0.791563	0.154702	0.712145	0.281171	0.241943	6.176194	0.036011	
0.802187	0.151596	0.661155	0.265349	0.232216	6.053900	0.035634	
0.810330	0.148765	0.611955	0.250539	0.222684	5.912756	0.035377	
0.814670	0.147074	0.581445	0.241570	0.216708	5.822690	0.035241	
0.822813	0.143577	0.515665	0.222826	0.203737	5.605201	0.035060	
0.833437	0.138467	0.412414	0.194935	0.183160	5.226497	0.035014	
0.841580	0.134474	0.325536	0.172793	0.165667	4.867731	0.035241	
0.845920	0.132434	0.278946	0.161398	0.156245	4.662525	0.035468	
0.854063	0.129056	0.198162	0.142349	0.139815	4.280674	0.036087	
0.864687	0.125899	0.117968	0.124227	0.123351	3.869098	0.037054	
0.872830	0.124341	0.076598	0.115163	0.114798	3.645434	0.037718	
0.877170	0.123773	0.061136	0.111809	0.111578	3.559224	0.038005	
0.885313	0.123011	0.040070	0.107273	0.107174	3.437976	0.038443	
0.895937	0.122416	0.023310	0.103684	0.103651	3.340571	0.038821	
0.904080	0.122152	0.015759	0.102061	0.102045	3.296177	0.039002	
0.908420	0.122049	0.012784	0.101421	0.101411	3.278256	0.039078	
0.916563	0.121912	0.008773	0.100554	0.100550	3.253706	0.039183	
0.927187	0.121799	0.005432	0.099828	0.099826	3.233093	0.039274	
0.935330	0.121745	0.003819	0.099475	0.099474	3.222987	0.039319	
0.939670	0.121723	0.003158	0.099331	0.099330	3.219420	0.039334	
0.947813	0.121692	0.002232	0.099125	0.099124	3.213002	0.039365	
0.958437	0.121665	0.001423	0.098944	0.098944	3.209193	0.039380	
0.966580	0.121652	0.001006	0.098852	0.098852	3.206090	0.039395	
0.970920	0.121647	0.000823	0.098813	0.098813	3.205819	0.039395	
0.979063	0.121638	0.000591	0.098754	0.098754	3.202976	0.039410	
0.989687	0.121631	0.000374	0.098699	0.098699	3.202574	0.039410	
0.997830	0.121626	0.000220	0.098666	0.098666	3.199923	0.039425	
