TITLE = "DG1DMBX32-P4RK3w5000iv20"
VARIABLES = "x" "Density" "Velocity in x" "Energy" "Pressure" "Temperature" "Fugacity"
ZONE T = "Final Time 0.10"
I = 160, J = 1, K = 1, F = POINT

0.001466	0.997523	0.000000	0.946203	0.946203	3.794211	0.288926	
0.007211	0.997523	-0.000000	0.946203	0.946203	3.794211	0.288926	
0.015625	0.997523	0.000000	0.946203	0.946203	3.794211	0.288926	
0.024039	0.997523	-0.000000	0.946203	0.946203	3.794211	0.288926	
0.029784	0.997523	-0.000000	0.946203	0.946203	3.794211	0.288926	
0.032716	0.997523	0.000000	0.946203	0.946203	3.794211	0.288926	
0.038461	0.997523	-0.000000	0.946203	0.946203	3.794211	0.288926	
0.046875	0.997523	-0.000000	0.946203	0.946203	3.794211	0.288926	
0.055289	0.997523	0.000000	0.946203	0.946203	3.794211	0.288926	
0.061034	0.997523	-0.000000	0.946203	0.946203	3.794211	0.288926	
0.063966	0.997523	-0.000000	0.946203	0.946203	3.794211	0.288926	
0.069711	0.997523	0.000000	0.946203	0.946203	3.794211	0.288926	
0.078125	0.997523	-0.000000	0.946203	0.946203	3.794211	0.288926	
0.086539	0.997523	0.000000	0.946203	0.946203	3.794211	0.288926	
0.092284	0.997523	0.000000	0.946203	0.946203	3.794211	0.288926	
0.095216	0.997523	-0.000000	0.946203	0.946203	3.794211	0.288926	
0.100961	0.997523	0.000000	0.946203	0.946203	3.794211	0.288926	
0.109375	0.997523	0.000000	0.946203	0.946203	3.794211	0.288926	
0.117789	0.997523	-0.000000	0.946203	0.946203	3.794211	0.288926	
0.123534	0.997523	0.000000	0.946203	0.946203	3.794211	0.288926	
0.126466	0.997523	0.000000	0.946203	0.946203	3.794211	0.288926	
0.132211	0.997523	-0.000000	0.946203	0.946203	3.794211	0.288926	
0.140625	0.997523	0.000000	0.946203	0.946203	3.794211	0.288926	
0.149039	0.997523	0.000000	0.946203	0.946203	3.794211	0.288926	
0.154784	0.997523	-0.000000	0.946203	0.946203	3.794211	0.288926	
0.157716	0.997523	0.000000	0.946203	0.946203	3.794211	0.288926	
0.163461	0.997523	0.000000	0.946203	0.946203	3.794211	0.288926	
0.171875	0.997523	-0.000000	0.946203	0.946203	3.794211	0.288926	
0.180289	0.997523	0.000000	0.946203	0.946203	3.794211	0.288926	
0.186034	0.997523	0.000000	0.946203	0.946203	3.794211	0.288926	
0.188966	0.997523	-0.000000	0.946204	0.946204	3.794212	0.288926	
0.194711	0.997523	0.000000	0.946203	0.946203	3.794211	0.288926	
0.203125	0.997523	0.000000	0.946203	0.946203	3.794211	0.288926	
0.211539	0.997523	-0.000000	0.946204	0.946204	3.794213	0.288926	
0.217284	0.997523	0.000000	0.946203	0.946203	3.794209	0.288927	
0.220216	0.997523	0.000001	0.946202	0.946202	3.794208	0.288926	
0.225961	0.997523	-0.000001	0.946204	0.946204	3.794213	0.288926	
0.234375	0.997523	0.000000	0.946203	0.946203	3.794211	0.288926	
0.242789	0.997523	0.000002	0.946202	0.946202	3.794206	0.288926	
0.248534	0.997525	-0.000005	0.946209	0.946209	3.794228	0.288926	
0.251466	0.997524	-0.000002	0.946206	0.946206	3.794217	0.288927	
0.257211	0.997521	0.000005	0.946198	0.946198	3.794196	0.288927	
0.265625	0.997524	-0.000003	0.946207	0.946207	3.794223	0.288926	
0.274039	0.997525	-0.000004	0.946207	0.946207	3.794219	0.288927	
0.279784	0.997512	0.000028	0.946172	0.946172	3.794125	0.288927	
0.282716	0.997521	0.000003	0.946201	0.946201	3.794209	0.288926	
0.288461	0.997533	-0.000025	0.946233	0.946233	3.794291	0.288926	
0.296875	0.997515	0.000021	0.946176	0.946176	3.794132	0.288927	
0.305289	0.997518	0.000011	0.946197	0.946197	3.794207	0.288925	
0.311034	0.997577	-0.000132	0.946354	0.946354	3.794611	0.288927	
0.313966	0.997532	-0.000020	0.946216	0.946216	3.794228	0.288928	
0.319711	0.997474	0.000125	0.946056	0.946056	3.793809	0.288927	
0.328125	0.997556	-0.000088	0.946318	0.946318	3.794548	0.288923	
0.336539	0.997575	-0.000117	0.946315	0.946315	3.794460	0.288932	
0.342284	0.997296	0.000569	0.945545	0.945545	3.792434	0.288928	
0.345216	0.997372	0.000370	0.945812	0.945811	3.793216	0.288920	
0.350961	0.997724	-0.000529	0.946823	0.946823	3.795931	0.288919	
0.359375	0.997551	-0.000017	0.946201	0.946201	3.794095	0.288939	
0.367789	0.997004	0.001247	0.944757	0.944756	3.790380	0.288922	
0.373534	0.997910	-0.001145	0.947581	0.947581	3.798260	0.288884	
0.376466	0.998664	-0.002787	0.949502	0.949498	3.803075	0.288920	
0.382211	0.997743	-0.000315	0.946611	0.946611	3.795009	0.288960	
0.390625	0.996223	0.003025	0.942415	0.942411	3.783933	0.288942	
0.399039	0.998490	-0.002523	0.949666	0.949663	3.804396	0.288819	
0.404784	1.000311	-0.005888	0.953178	0.953161	3.811458	0.289078	
0.407716	0.997432	-0.000137	0.945598	0.945598	3.792128	0.288979	
0.413461	0.986924	0.026423	0.914382	0.914037	3.704588	0.289294	
0.421875	0.957341	0.096772	0.839428	0.834946	3.488605	0.289178	
0.430289	0.917279	0.192289	0.752864	0.735905	3.209081	0.288892	
0.436034	0.887684	0.262433	0.699131	0.668563	3.012618	0.288543	
0.438966	0.871532	0.300493	0.673287	0.633939	2.909537	0.288268	
0.444711	0.840277	0.376118	0.628189	0.568755	2.707463	0.288115	
0.453125	0.791230	0.491950	0.573744	0.478000	2.416490	0.287167	
0.461539	0.740688	0.614436	0.533100	0.393283	2.123883	0.286744	
0.467284	0.705131	0.700019	0.513239	0.340473	1.931401	0.286259	
0.470216	0.687786	0.741442	0.505798	0.316748	1.842130	0.285903	
0.475961	0.657416	0.812940	0.495898	0.278665	1.695516	0.284849	
0.484375	0.633254	0.874450	0.491626	0.249513	1.576067	0.284587	
0.492789	0.630406	0.882703	0.492552	0.246957	1.566970	0.284129	
0.498534	0.628041	0.882046	0.492360	0.248051	1.579837	0.281908	
0.501466	0.627601	0.882575	0.492757	0.248325	1.582694	0.281456	
0.507211	0.618446	0.889480	0.490048	0.245399	1.587195	0.276957	
0.515625	0.640898	0.894812	0.500844	0.244264	1.524513	0.292852	
0.524039	0.560885	0.905596	0.473968	0.243976	1.739935	0.239901	
0.529784	0.419464	0.914565	0.420925	0.245499	2.341073	0.154672	
0.532716	0.328752	0.926548	0.385940	0.244825	2.978844	0.107465	
0.538461	0.235458	0.906550	0.339653	0.242900	4.126416	0.065396	
0.546875	0.203008	0.833925	0.304939	0.234350	4.617557	0.053301	
0.555289	0.188705	0.766662	0.276892	0.221434	4.693754	0.049142	
0.561034	0.176314	0.708456	0.257583	0.213336	4.839929	0.045216	
0.563966	0.174732	0.675095	0.249465	0.209647	4.799297	0.045000	
0.569711	0.167852	0.626532	0.233432	0.200488	4.777729	0.043325	
0.578125	0.159036	0.555482	0.213750	0.189214	4.759040	0.041130	
0.586539	0.155478	0.494356	0.201785	0.182787	4.702567	0.040451	
0.592284	0.150087	0.439996	0.185212	0.170684	4.548913	0.039702	
0.595216	0.145673	0.376795	0.168770	0.158429	4.350260	0.039405	
0.600961	0.127112	0.051094	0.109331	0.109165	3.435241	0.038693	
0.609375	0.123845	-0.023027	0.095710	0.095677	3.090227	0.039747	
0.617789	0.127246	0.042458	0.105357	0.105242	3.308312	0.039470	
0.623534	0.124359	-0.013464	0.097706	0.097695	3.142341	0.039580	
0.626466	0.122423	-0.045410	0.093562	0.093436	3.052881	0.039531	
0.632211	0.125693	0.012214	0.100920	0.100911	3.211338	0.039572	
0.640625	0.125054	0.002281	0.099736	0.099736	3.190162	0.039502	
0.649039	0.124608	-0.006825	0.098412	0.098409	3.159000	0.039555	
0.654784	0.125391	0.006431	0.100244	0.100242	3.197735	0.039561	
0.657716	0.125326	0.007203	0.100370	0.100367	3.203407	0.039506	
0.663461	0.124775	-0.003365	0.098900	0.098900	3.170486	0.039536	
0.671875	0.125003	0.000412	0.099422	0.099422	3.181426	0.039540	
0.680289	0.125023	0.000986	0.099502	0.099502	3.183481	0.039533	
0.686034	0.124854	-0.001912	0.099099	0.099099	3.174875	0.039533	
0.688966	0.124939	-0.000760	0.099245	0.099245	3.177400	0.039545	
0.694711	0.125019	0.000822	0.099484	0.099484	3.183017	0.039535	
0.703125	0.124954	-0.000285	0.099322	0.099322	3.179478	0.039536	
0.711539	0.124971	-0.000015	0.099361	0.099361	3.180276	0.039537	
0.717284	0.124996	0.000415	0.099422	0.099422	3.181600	0.039536	
0.720216	0.124964	-0.000112	0.099353	0.099353	3.180214	0.039535	
0.725961	0.124965	-0.000118	0.099345	0.099345	3.179931	0.039537	
0.734375	0.124976	0.000073	0.099374	0.099374	3.180600	0.039536	
0.742789	0.124969	-0.000036	0.099359	0.099359	3.180256	0.039536	
0.748534	0.124969	-0.000043	0.099358	0.099358	3.180222	0.039537	
0.751466	0.124975	0.000061	0.099371	0.099371	3.180523	0.039537	
0.757211	0.124972	0.000001	0.099364	0.099364	3.180378	0.039536	
0.765625	0.124971	-0.000008	0.099362	0.099362	3.180333	0.039537	
0.774039	0.124972	0.000009	0.099365	0.099365	3.180390	0.039536	
0.779784	0.124971	-0.000004	0.099363	0.099363	3.180353	0.039536	
0.782716	0.124971	-0.000010	0.099362	0.099362	3.180330	0.039536	
0.788461	0.124972	0.000004	0.099364	0.099364	3.180372	0.039536	
0.796875	0.124971	-0.000001	0.099364	0.099364	3.180360	0.039536	
0.805289	0.124971	-0.000001	0.099364	0.099364	3.180359	0.039536	
0.811034	0.124972	0.000002	0.099364	0.099364	3.180368	0.039536	
0.813966	0.124971	-0.000000	0.099364	0.099364	3.180363	0.039536	
0.819711	0.124971	-0.000001	0.099364	0.099364	3.180360	0.039536	
0.828125	0.124972	0.000000	0.099364	0.099364	3.180363	0.039536	
0.836539	0.124971	-0.000000	0.099364	0.099364	3.180361	0.039536	
0.842284	0.124971	-0.000000	0.099364	0.099364	3.180361	0.039536	
0.845216	0.124972	0.000000	0.099364	0.099364	3.180363	0.039536	
0.850961	0.124972	-0.000000	0.099364	0.099364	3.180362	0.039536	
0.859375	0.124972	-0.000000	0.099364	0.099364	3.180362	0.039536	
0.867789	0.124972	0.000000	0.099364	0.099364	3.180362	0.039536	
0.873534	0.124972	-0.000000	0.099364	0.099364	3.180362	0.039536	
0.876466	0.124972	-0.000000	0.099364	0.099364	3.180362	0.039536	
0.882211	0.124972	0.000000	0.099364	0.099364	3.180362	0.039536	
0.890625	0.124972	-0.000000	0.099364	0.099364	3.180362	0.039536	
0.899039	0.124972	0.000000	0.099364	0.099364	3.180362	0.039536	
0.904784	0.124972	0.000000	0.099364	0.099364	3.180362	0.039536	
0.907716	0.124972	-0.000000	0.099364	0.099364	3.180362	0.039536	
0.913461	0.124972	-0.000000	0.099364	0.099364	3.180362	0.039536	
0.921875	0.124972	0.000000	0.099364	0.099364	3.180362	0.039536	
0.930289	0.124972	-0.000000	0.099364	0.099364	3.180362	0.039536	
0.936034	0.124972	0.000000	0.099364	0.099364	3.180362	0.039536	
0.938966	0.124972	0.000000	0.099364	0.099364	3.180362	0.039536	
0.944711	0.124972	-0.000000	0.099364	0.099364	3.180362	0.039536	
0.953125	0.124972	0.000000	0.099364	0.099364	3.180362	0.039536	
0.961539	0.124972	-0.000000	0.099364	0.099364	3.180362	0.039536	
0.967284	0.124972	-0.000000	0.099364	0.099364	3.180362	0.039536	
0.970216	0.124972	0.000000	0.099364	0.099364	3.180362	0.039536	
0.975961	0.124972	-0.000000	0.099364	0.099364	3.180362	0.039536	
0.984375	0.124972	-0.000000	0.099364	0.099364	3.180362	0.039536	
0.992789	0.124972	0.000000	0.099364	0.099364	3.180362	0.039536	
0.998534	0.124972	-0.000000	0.099364	0.099364	3.180362	0.039536	
