TITLE = "DG1DFDX32-P4RK4w100iv80"
VARIABLES = "x" "Density" "Velocity in x" "Energy" "Pressure" "Temperature" "Fugacity"
ZONE T = "Final Time 0.10"
I = 160, J = 1, K = 1, F = POINT

0.001466	0.837397	0.000004	0.913197	0.913197	4.000390	0.282036	
0.007211	0.837397	0.000005	0.913195	0.913195	4.000387	0.282036	
0.015625	0.837396	0.000007	0.913192	0.913192	4.000382	0.282036	
0.024039	0.837395	0.000011	0.913186	0.913186	4.000374	0.282036	
0.029784	0.837394	0.000015	0.913179	0.913179	4.000364	0.282036	
0.032716	0.837393	0.000018	0.913176	0.913176	4.000357	0.282036	
0.038461	0.837393	0.000023	0.913168	0.913168	4.000348	0.282036	
0.046875	0.837388	0.000044	0.913138	0.913138	4.000302	0.282036	
0.055289	0.837378	0.000083	0.913078	0.913078	3.999848	0.282051	
0.061034	0.837371	0.000112	0.913036	0.913036	3.999785	0.282051	
0.063966	0.837368	0.000130	0.913012	0.913012	3.999749	0.282051	
0.069711	0.837356	0.000176	0.912945	0.912945	3.999277	0.282067	
0.078125	0.837333	0.000272	0.912806	0.912806	3.999060	0.282067	
0.086539	0.837299	0.000412	0.912606	0.912606	3.998373	0.282082	
0.092284	0.837266	0.000546	0.912416	0.912416	3.997342	0.282112	
0.095216	0.837246	0.000629	0.912299	0.912299	3.997148	0.282112	
0.100961	0.837197	0.000827	0.912020	0.912020	3.995957	0.282142	
0.109375	0.837097	0.001229	0.911463	0.911462	3.993920	0.282187	
0.117789	0.836949	0.001811	0.910665	0.910664	3.991075	0.282248	
0.123534	0.836812	0.002348	0.909938	0.909936	3.988688	0.282293	
0.126466	0.836728	0.002676	0.909497	0.909494	3.987166	0.282323	
0.132211	0.836529	0.003443	0.908474	0.908469	3.983478	0.282399	
0.140625	0.836138	0.004931	0.906515	0.906505	3.976536	0.282535	
0.149039	0.835595	0.006970	0.903875	0.903855	3.967446	0.282701	
0.154784	0.835114	0.008755	0.901597	0.901565	3.959321	0.282852	
0.157716	0.834828	0.009809	0.900265	0.900225	3.954832	0.282927	
0.163461	0.834177	0.012188	0.897288	0.897226	3.944414	0.283109	
0.171875	0.832975	0.016524	0.891953	0.891840	3.926009	0.283411	
0.180289	0.831426	0.022032	0.885324	0.885122	3.903370	0.283758	
0.186034	0.830139	0.026555	0.879985	0.879692	3.885376	0.284015	
0.188966	0.829403	0.029121	0.876995	0.876643	3.875029	0.284166	
0.194711	0.827796	0.034682	0.870597	0.870099	3.853134	0.284468	
0.203125	0.825019	0.044177	0.859928	0.859123	3.817106	0.284921	
0.211539	0.821702	0.055368	0.847718	0.846458	3.775370	0.285420	
0.217284	0.819109	0.064021	0.838520	0.836841	3.743916	0.285767	
0.220216	0.817679	0.068760	0.833569	0.831636	3.726889	0.285948	
0.225961	0.814667	0.078684	0.823386	0.820864	3.691939	0.286296	
0.234375	0.809743	0.094738	0.807416	0.803782	3.636808	0.286794	
0.242789	0.804208	0.112585	0.790345	0.785249	3.576814	0.287293	
0.248534	0.800079	0.125781	0.778160	0.771831	3.533629	0.287610	
0.251466	0.797864	0.132822	0.771803	0.764765	3.510687	0.287776	
0.257211	0.793315	0.147209	0.759118	0.750522	3.464973	0.288063	
0.265625	0.786170	0.169632	0.740129	0.728818	3.394772	0.288471	
0.274039	0.778472	0.193584	0.720851	0.706265	3.322192	0.288803	
0.279784	0.772912	0.210765	0.707633	0.690466	3.270888	0.289015	
0.282716	0.769983	0.219777	0.700897	0.682301	3.244445	0.289105	
0.288461	0.764075	0.237893	0.687757	0.666136	3.192050	0.289256	
0.296875	0.755037	0.265443	0.668764	0.642164	3.113706	0.289438	
0.305289	0.745572	0.294101	0.650228	0.617983	3.034539	0.289528	
0.311034	0.738886	0.314242	0.637914	0.601432	2.979832	0.289558	
0.313966	0.735409	0.324682	0.631756	0.592993	2.952117	0.289543	
0.319711	0.728479	0.345432	0.619962	0.576499	2.897247	0.289513	
0.328125	0.718075	0.376440	0.603406	0.552527	2.817048	0.289392	
0.336539	0.707408	0.408060	0.587791	0.528895	2.737328	0.289181	
0.342284	0.699999	0.429923	0.577714	0.513022	2.683585	0.288969	
0.345216	0.696186	0.441146	0.572763	0.505020	2.656292	0.288849	
0.350961	0.688661	0.463234	0.563444	0.489556	2.603282	0.288577	
0.359375	0.677546	0.495709	0.550743	0.467498	2.527026	0.288093	
0.367789	0.666377	0.528159	0.539191	0.446247	2.453025	0.287489	
0.373534	0.658753	0.550196	0.531969	0.432261	2.403786	0.287021	
0.376466	0.654872	0.561378	0.528492	0.425302	2.379327	0.286749	
0.382211	0.647299	0.583117	0.522085	0.412036	2.332451	0.286175	
0.390625	0.636335	0.614382	0.513662	0.393565	2.266957	0.285208	
0.399039	0.625595	0.644727	0.506349	0.376327	2.205391	0.284106	
0.404784	0.618431	0.664779	0.501967	0.365315	2.166200	0.283245	
0.407716	0.614838	0.674767	0.499915	0.359943	2.147070	0.282776	
0.413461	0.607938	0.693801	0.496241	0.349923	2.111660	0.281780	
0.421875	0.598212	0.720228	0.491648	0.336493	2.064536	0.280163	
0.430289	0.588985	0.744723	0.487909	0.324579	2.023541	0.278336	
0.436034	0.582987	0.760248	0.485796	0.317320	1.999353	0.276946	
0.438966	0.580024	0.767775	0.484844	0.313888	1.988220	0.276191	
0.444711	0.574402	0.781740	0.483202	0.307688	1.968928	0.274605	
0.453125	0.566580	0.800326	0.481270	0.299816	1.946348	0.272037	
0.461539	0.559158	0.816797	0.479803	0.293280	1.930772	0.269107	
0.467284	0.554240	0.826937	0.479014	0.289512	1.923986	0.266871	
0.470216	0.551756	0.831795	0.478665	0.287789	1.921898	0.265633	
0.475961	0.546890	0.840775	0.478067	0.284768	1.919944	0.263035	
0.484375	0.539607	0.852856	0.477341	0.281095	1.922976	0.258684	
0.492789	0.531863	0.864042	0.476707	0.278171	1.933422	0.253534	
0.498534	0.526139	0.871379	0.476278	0.276529	1.945058	0.249471	
0.501466	0.523036	0.875083	0.476048	0.275785	1.952684	0.247190	
0.507211	0.516524	0.882343	0.475553	0.274489	1.970689	0.242311	
0.515625	0.505744	0.893185	0.474662	0.272926	2.005712	0.234049	
0.524039	0.493178	0.904541	0.473451	0.271693	2.053306	0.224291	
0.529784	0.483424	0.912700	0.472367	0.271016	2.093838	0.216754	
0.532716	0.478051	0.917010	0.471716	0.270718	2.117666	0.212615	
0.538461	0.466721	0.925741	0.470211	0.270221	2.170442	0.203990	
0.546875	0.448223	0.939159	0.467374	0.269703	2.264594	0.190215	
0.555289	0.427591	0.953133	0.463655	0.269429	2.381837	0.175352	
0.561034	0.412441	0.962814	0.460549	0.269381	2.476511	0.164809	
0.563966	0.404436	0.967733	0.458778	0.269399	2.530039	0.159356	
0.569711	0.388338	0.977212	0.454939	0.269518	2.644555	0.148677	
0.578125	0.364170	0.990310	0.448453	0.269880	2.836778	0.133331	
0.586539	0.339953	1.001814	0.441027	0.270434	3.059100	0.118755	
0.592284	0.323757	1.008368	0.435498	0.270899	3.226857	0.109465	
0.595216	0.315682	1.011218	0.432558	0.271156	3.317403	0.104964	
0.600961	0.300350	1.015709	0.426617	0.271687	3.502485	0.096672	
0.609375	0.279342	1.019396	0.417627	0.272485	3.790959	0.085811	
0.617789	0.260356	1.019407	0.408524	0.273245	4.090924	0.076522	
0.623534	0.248656	1.017276	0.402368	0.273707	4.298447	0.071039	
0.626466	0.243091	1.015547	0.399272	0.273918	4.403332	0.068502	
0.632211	0.232976	1.010967	0.393330	0.274273	4.607779	0.063985	
0.640625	0.219997	1.001731	0.385012	0.274632	4.893584	0.058412	
0.649039	0.209061	0.990080	0.377247	0.274780	5.162182	0.053880	
0.654784	0.202665	0.981113	0.372297	0.274756	5.327299	0.051328	
0.657716	0.199708	0.976312	0.369887	0.274707	5.407144	0.050164	
0.663461	0.194470	0.966602	0.365386	0.274538	5.555539	0.048125	
0.671875	0.187990	0.951999	0.359318	0.274131	5.743493	0.045678	
0.680289	0.182722	0.937392	0.353829	0.273550	5.896903	0.043760	
0.686034	0.179712	0.927607	0.350378	0.273062	5.989776	0.042673	
0.688966	0.178335	0.922700	0.348702	0.272787	6.030304	0.042189	
0.694711	0.175912	0.913273	0.345562	0.272201	6.103102	0.041343	
0.703125	0.172927	0.899926	0.341248	0.271224	6.188885	0.040331	
0.711539	0.170479	0.887047	0.337176	0.270105	6.249490	0.039546	
0.717284	0.169047	0.878423	0.334469	0.269248	6.284367	0.039093	
0.720216	0.168377	0.874043	0.333094	0.268778	6.300819	0.038881	
0.725961	0.167164	0.865436	0.330391	0.267790	6.324633	0.038519	
0.734375	0.165568	0.852563	0.326324	0.266152	6.344247	0.038081	
0.742789	0.164111	0.838974	0.321990	0.264233	6.355284	0.037703	
0.748534	0.163156	0.829016	0.318789	0.262723	6.355719	0.037477	
0.751466	0.162672	0.823650	0.317058	0.261879	6.357964	0.037356	
0.757211	0.161717	0.812454	0.313432	0.260059	6.348395	0.037159	
0.765625	0.160264	0.794001	0.307440	0.256921	6.329769	0.036872	
0.774039	0.158685	0.772333	0.300412	0.253084	6.300955	0.036585	
0.779784	0.157500	0.755157	0.294870	0.249961	6.267618	0.036404	
0.782716	0.156854	0.745504	0.291771	0.248183	6.251636	0.036298	
0.788461	0.155489	0.724556	0.285094	0.244279	6.203589	0.036117	
0.796875	0.153219	0.688171	0.273672	0.237392	6.123299	0.035815	
0.805289	0.150560	0.643393	0.259945	0.228783	6.006134	0.035528	
0.811034	0.148489	0.607039	0.249072	0.221713	5.900695	0.035347	
0.813966	0.147347	0.586433	0.243019	0.217683	5.839431	0.035256	
0.819711	0.144948	0.541833	0.230188	0.208911	5.693604	0.035120	
0.828125	0.141068	0.465989	0.209184	0.193868	5.429295	0.034999	
0.836539	0.136926	0.379533	0.186419	0.176558	5.093629	0.035075	
0.842284	0.134114	0.317410	0.170793	0.164037	4.833607	0.035271	
0.845216	0.132739	0.285987	0.163105	0.157677	4.691827	0.035437	
0.850961	0.130249	0.227167	0.149084	0.145723	4.421307	0.035830	
0.859375	0.127298	0.154012	0.132271	0.130761	4.058121	0.036570	
0.867789	0.125225	0.100189	0.120308	0.119680	3.773627	0.037325	
0.873534	0.124251	0.074110	0.114616	0.114275	3.631642	0.037764	
0.876466	0.123860	0.063465	0.112313	0.112063	3.572522	0.037960	
0.882211	0.123259	0.046954	0.108755	0.108619	3.478408	0.038292	
0.890625	0.122669	0.030462	0.105216	0.105159	3.382555	0.038655	
0.899039	0.122303	0.020051	0.102984	0.102959	3.321810	0.038896	
0.904784	0.122133	0.015186	0.101939	0.101925	3.292668	0.039017	
0.907716	0.122065	0.013216	0.101515	0.101505	3.281572	0.039063	
0.913461	0.121958	0.010108	0.100845	0.100838	3.263540	0.039138	
0.921875	0.121849	0.006892	0.100148	0.100145	3.243040	0.039229	
0.930289	0.121777	0.004749	0.099681	0.099680	3.229508	0.039289	
0.936034	0.121741	0.003697	0.099450	0.099449	3.222817	0.039319	
0.938966	0.121727	0.003257	0.099353	0.099353	3.219639	0.039334	
0.944711	0.121703	0.002546	0.099197	0.099197	3.215998	0.039349	
0.953125	0.121678	0.001783	0.099026	0.099026	3.212265	0.039365	
0.961539	0.121661	0.001245	0.098906	0.098906	3.208946	0.039380	
0.967284	0.121652	0.000972	0.098846	0.098846	3.206082	0.039395	
0.970216	0.121648	0.000867	0.098820	0.098820	3.205887	0.039395	
0.975961	0.121642	0.000658	0.098774	0.098774	3.203155	0.039410	
0.984375	0.121636	0.000454	0.098733	0.098733	3.202865	0.039410	
0.992789	0.121631	0.000278	0.098695	0.098695	3.202586	0.039410	
0.998534	0.121627	0.000167	0.098668	0.098668	3.199988	0.039425	
