TITLE = "DG1DFDX64-P4RK4w1000iv80"
VARIABLES = "x" "Density" "Velocity in x" "Energy" "Pressure" "Temperature" "Fugacity"
ZONE T = "Final Time 0.10"
I = 320, J = 1, K = 1, F = POINT

0.000733	0.836980	-0.000000	0.912936	0.912936	4.001454	0.281825	
0.003606	0.836980	-0.000000	0.912936	0.912936	4.001454	0.281825	
0.007813	0.836980	-0.000000	0.912936	0.912936	4.001454	0.281825	
0.012019	0.836980	-0.000000	0.912936	0.912936	4.001454	0.281825	
0.014892	0.836980	-0.000000	0.912936	0.912936	4.001454	0.281825	
0.016358	0.836980	-0.000000	0.912936	0.912936	4.001454	0.281825	
0.019231	0.836980	-0.000000	0.912936	0.912936	4.001454	0.281825	
0.023438	0.836980	-0.000000	0.912936	0.912936	4.001454	0.281825	
0.027644	0.836980	-0.000000	0.912936	0.912936	4.001454	0.281825	
0.030517	0.836980	-0.000000	0.912936	0.912936	4.001454	0.281825	
0.031983	0.836980	-0.000000	0.912936	0.912936	4.001454	0.281825	
0.034856	0.836980	-0.000000	0.912936	0.912936	4.001454	0.281825	
0.039063	0.836980	-0.000000	0.912936	0.912936	4.001454	0.281825	
0.043269	0.836980	-0.000000	0.912936	0.912936	4.001454	0.281825	
0.046142	0.836980	-0.000000	0.912936	0.912936	4.001454	0.281825	
0.047608	0.836980	-0.000000	0.912936	0.912936	4.001454	0.281825	
0.050481	0.836980	-0.000000	0.912936	0.912936	4.001454	0.281825	
0.054688	0.836980	-0.000000	0.912936	0.912936	4.001454	0.281825	
0.058894	0.836980	-0.000000	0.912936	0.912936	4.001454	0.281825	
0.061767	0.836980	-0.000000	0.912936	0.912936	4.001454	0.281825	
0.063233	0.836980	-0.000000	0.912936	0.912936	4.001454	0.281825	
0.066106	0.836980	-0.000000	0.912936	0.912936	4.001454	0.281825	
0.070313	0.836980	-0.000000	0.912936	0.912936	4.001454	0.281825	
0.074519	0.836980	-0.000000	0.912936	0.912936	4.001454	0.281825	
0.077392	0.836980	-0.000000	0.912936	0.912936	4.001454	0.281825	
0.078858	0.836980	-0.000000	0.912936	0.912936	4.001454	0.281825	
0.081731	0.836980	-0.000000	0.912936	0.912936	4.001454	0.281825	
0.085938	0.836980	-0.000000	0.912936	0.912936	4.001454	0.281825	
0.090144	0.836980	-0.000000	0.912936	0.912936	4.001454	0.281825	
0.093017	0.836980	-0.000000	0.912936	0.912936	4.001454	0.281825	
0.094483	0.836980	-0.000000	0.912936	0.912936	4.001454	0.281825	
0.097356	0.836980	-0.000000	0.912936	0.912936	4.001454	0.281825	
0.101563	0.836980	-0.000000	0.912936	0.912936	4.001454	0.281825	
0.105769	0.836980	-0.000000	0.912936	0.912936	4.001454	0.281825	
0.108642	0.836980	-0.000000	0.912936	0.912936	4.001454	0.281825	
0.110108	0.836980	-0.000000	0.912936	0.912936	4.001454	0.281825	
0.112981	0.836980	-0.000000	0.912936	0.912936	4.001454	0.281825	
0.117188	0.836980	-0.000000	0.912936	0.912936	4.001454	0.281825	
0.121394	0.836980	-0.000000	0.912936	0.912936	4.001454	0.281825	
0.124267	0.836980	-0.000000	0.912936	0.912936	4.001454	0.281825	
0.125733	0.836980	0.000000	0.912936	0.912936	4.001454	0.281825	
0.128606	0.836980	-0.000000	0.912936	0.912936	4.001454	0.281825	
0.132813	0.836980	0.000000	0.912936	0.912936	4.001454	0.281825	
0.137019	0.836980	0.000000	0.912936	0.912936	4.001454	0.281825	
0.139892	0.836980	-0.000000	0.912936	0.912936	4.001454	0.281825	
0.141358	0.836980	-0.000000	0.912936	0.912936	4.001454	0.281825	
0.144231	0.836980	0.000000	0.912936	0.912936	4.001454	0.281825	
0.148438	0.836980	-0.000000	0.912936	0.912936	4.001454	0.281825	
0.152644	0.836980	0.000000	0.912936	0.912936	4.001454	0.281825	
0.155517	0.836980	0.000000	0.912936	0.912936	4.001454	0.281825	
0.156983	0.836980	0.000000	0.912936	0.912936	4.001454	0.281825	
0.159856	0.836980	-0.000000	0.912936	0.912936	4.001454	0.281825	
0.164063	0.836980	0.000000	0.912936	0.912936	4.001453	0.281825	
0.168269	0.836980	0.000001	0.912936	0.912936	4.001452	0.281825	
0.171142	0.836980	0.000001	0.912935	0.912935	4.001453	0.281825	
0.172608	0.836980	0.000001	0.912935	0.912935	4.001453	0.281825	
0.175481	0.836978	0.000007	0.912928	0.912928	4.001434	0.281825	
0.179688	0.836974	0.000019	0.912914	0.912914	4.001400	0.281825	
0.183894	0.836958	0.000073	0.912850	0.912850	4.001249	0.281825	
0.186767	0.836919	0.000201	0.912703	0.912703	4.000872	0.281825	
0.188233	0.836885	0.000313	0.912572	0.912572	4.000190	0.281840	
0.191106	0.836802	0.000590	0.912252	0.912252	3.999393	0.281840	
0.195313	0.836606	0.001234	0.911512	0.911511	3.996797	0.281870	
0.199519	0.836289	0.002279	0.910318	0.910316	3.993052	0.281900	
0.202392	0.835977	0.003297	0.909160	0.909155	3.989716	0.281915	
0.203858	0.835782	0.003932	0.908440	0.908433	3.987128	0.281946	
0.206731	0.835315	0.005443	0.906737	0.906725	3.981963	0.281976	
0.210938	0.834402	0.008381	0.903459	0.903429	3.971828	0.282036	
0.215144	0.833170	0.012323	0.899111	0.899048	3.958322	0.282112	
0.218017	0.832121	0.015662	0.895474	0.895371	3.946939	0.282172	
0.219483	0.831517	0.017580	0.893399	0.893271	3.940502	0.282202	
0.222356	0.830192	0.021773	0.888901	0.888704	3.926536	0.282263	
0.226563	0.827906	0.028969	0.881285	0.880938	3.902834	0.282354	
0.230769	0.825207	0.037419	0.872491	0.871913	3.875684	0.282429	
0.233642	0.823132	0.043894	0.865856	0.865063	3.854825	0.282489	
0.235108	0.822001	0.047412	0.862289	0.861365	3.843556	0.282520	
0.237981	0.819651	0.054712	0.854966	0.853739	3.820237	0.282580	
0.242188	0.815906	0.066314	0.843539	0.841745	3.784040	0.282641	
0.246394	0.811824	0.078920	0.831403	0.828875	3.744592	0.282716	
0.249267	0.808860	0.088059	0.822783	0.819647	3.716627	0.282746	
0.250733	0.807297	0.092869	0.818305	0.814824	3.701941	0.282761	
0.253606	0.804139	0.102582	0.809387	0.805156	3.672376	0.282792	
0.257813	0.799304	0.117421	0.796050	0.790540	3.627373	0.282837	
0.262019	0.794250	0.132909	0.782519	0.775504	3.581002	0.282867	
0.264892	0.790685	0.143822	0.773217	0.765039	3.548608	0.282882	
0.266358	0.788824	0.149505	0.768448	0.759632	3.531922	0.282882	
0.269231	0.785113	0.160857	0.759068	0.748910	3.498455	0.282897	
0.273438	0.779534	0.177901	0.745345	0.733009	3.448601	0.282912	
0.277644	0.773848	0.195303	0.731764	0.717006	3.398171	0.282927	
0.280517	0.769903	0.207347	0.722625	0.706075	3.363311	0.282943	
0.281983	0.767869	0.213561	0.718005	0.700494	3.345564	0.282943	
0.284856	0.763848	0.225815	0.709025	0.689550	3.310618	0.282943	
0.289063	0.757881	0.243978	0.696079	0.673522	3.259099	0.282943	
0.293269	0.751840	0.262395	0.683446	0.657563	3.207633	0.282927	
0.296142	0.747673	0.275099	0.675004	0.646712	3.172174	0.282927	
0.297608	0.745533	0.281617	0.670750	0.641186	3.154044	0.282927	
0.300481	0.741320	0.294455	0.662543	0.630406	3.118775	0.282912	
0.304688	0.735101	0.313395	0.650822	0.614722	3.066947	0.282897	
0.308894	0.728833	0.332485	0.639471	0.599186	3.015136	0.282882	
0.311767	0.724527	0.345597	0.631937	0.588669	2.979883	0.282867	
0.313233	0.722322	0.352308	0.628163	0.583335	2.961769	0.282867	
0.316106	0.717987	0.365501	0.620903	0.572945	2.926590	0.282852	
0.320313	0.711609	0.384897	0.610597	0.557886	2.875343	0.282822	
0.324519	0.705201	0.404383	0.600691	0.543032	2.824301	0.282792	
0.327392	0.700811	0.417735	0.594165	0.533018	2.789495	0.282776	
0.328858	0.698566	0.424559	0.590902	0.527943	2.771907	0.282761	
0.331731	0.694162	0.437953	0.584657	0.518086	2.737310	0.282746	
0.335938	0.687699	0.457609	0.575846	0.503842	2.687059	0.282716	
0.340144	0.681222	0.477299	0.567430	0.489834	2.637158	0.282686	
0.343017	0.676794	0.490760	0.561914	0.480413	2.603448	0.282656	
0.344483	0.674532	0.497633	0.559169	0.475649	2.586314	0.282641	
0.347356	0.670099	0.511102	0.553926	0.466402	2.552888	0.282610	
0.351563	0.663607	0.530825	0.546576	0.453082	2.504113	0.282580	
0.355769	0.657119	0.550535	0.539615	0.440032	2.456050	0.282535	
0.358642	0.652694	0.563979	0.535080	0.431278	2.423519	0.282505	
0.360108	0.650438	0.570831	0.532833	0.426861	2.407014	0.282489	
0.362981	0.646025	0.584241	0.528563	0.418307	2.375098	0.282444	
0.367188	0.639581	0.603821	0.522626	0.406030	2.328582	0.282399	
0.371394	0.633166	0.623309	0.517051	0.394054	2.282726	0.282354	
0.374267	0.628808	0.636548	0.513453	0.386059	2.252014	0.282308	
0.375733	0.626592	0.643278	0.511679	0.382035	2.236370	0.282293	
0.378606	0.622269	0.656407	0.508330	0.374272	2.206213	0.282248	
0.382813	0.615991	0.675459	0.503713	0.363192	2.162703	0.282187	
0.387019	0.609793	0.694257	0.499440	0.352482	2.120354	0.282112	
0.389892	0.605618	0.706911	0.496712	0.345391	2.092172	0.282051	
0.391358	0.603508	0.713301	0.495381	0.341849	2.077809	0.282036	
0.394231	0.599423	0.725675	0.492892	0.335063	2.050513	0.281976	
0.398438	0.593574	0.743373	0.489525	0.325520	2.011785	0.281885	
0.402644	0.587925	0.760454	0.486491	0.316495	1.974920	0.281780	
0.405517	0.584208	0.771682	0.484609	0.310664	1.950905	0.281704	
0.406983	0.582362	0.777252	0.483707	0.307798	1.938946	0.281674	
0.409856	0.578857	0.787815	0.482059	0.302425	1.916719	0.281583	
0.414063	0.574038	0.802310	0.479921	0.295166	1.886467	0.281447	
0.418269	0.569657	0.815436	0.478108	0.288715	1.859632	0.281281	
0.421142	0.566958	0.823491	0.477056	0.284818	1.843218	0.281175	
0.422608	0.565681	0.827291	0.476576	0.282997	1.835589	0.281115	
0.425481	0.563387	0.834094	0.475741	0.279763	1.822048	0.280994	
0.429688	0.560544	0.842465	0.474764	0.275842	1.805832	0.280798	
0.433894	0.558321	0.848941	0.474048	0.272857	1.793486	0.280616	
0.436767	0.557141	0.852337	0.473689	0.271313	1.787047	0.280511	
0.438233	0.556637	0.853774	0.473542	0.270667	1.784462	0.280450	
0.441106	0.555819	0.856087	0.473310	0.269634	1.780353	0.280345	
0.445313	0.554976	0.858397	0.473073	0.268607	1.776248	0.280224	
0.449519	0.554476	0.859714	0.472947	0.268038	1.774175	0.280118	
0.452392	0.554245	0.860283	0.472898	0.267803	1.773502	0.280042	
0.453858	0.554141	0.860522	0.472876	0.267706	1.773160	0.280012	
0.456731	0.553975	0.860851	0.472837	0.267572	1.772739	0.279952	
0.460938	0.553813	0.861142	0.472807	0.267463	1.772671	0.279861	
0.465144	0.553710	0.861290	0.472803	0.267426	1.772822	0.279786	
0.468017	0.553656	0.861342	0.472802	0.267420	1.772959	0.279740	
0.469483	0.553630	0.861357	0.472799	0.267420	1.772953	0.279725	
0.472356	0.553582	0.861380	0.472800	0.267428	1.773289	0.279665	
0.476563	0.553508	0.861381	0.472788	0.267443	1.773624	0.279589	
0.480769	0.553434	0.861369	0.472777	0.267465	1.774118	0.279499	
0.483642	0.553383	0.861358	0.472767	0.267479	1.774274	0.279453	
0.485108	0.553355	0.861353	0.472762	0.267487	1.774417	0.279423	
0.487981	0.553299	0.861340	0.472753	0.267505	1.774872	0.279348	
0.492188	0.553216	0.861316	0.472739	0.267534	1.775307	0.279257	
0.496394	0.553127	0.861288	0.472728	0.267569	1.775871	0.279151	
0.499267	0.553062	0.861265	0.472719	0.267594	1.776261	0.279076	
0.500733	0.553027	0.861253	0.472713	0.267607	1.776523	0.279030	
0.503606	0.552954	0.861226	0.472698	0.267633	1.777026	0.278940	
0.507813	0.552835	0.861188	0.472672	0.267668	1.777724	0.278804	
0.512019	0.552700	0.861155	0.472639	0.267701	1.778320	0.278668	
0.514892	0.552597	0.861138	0.472616	0.267724	1.778954	0.278547	
0.516358	0.552540	0.861130	0.472602	0.267735	1.779236	0.278487	
0.519231	0.552417	0.861123	0.472575	0.267757	1.779749	0.278366	
0.523438	0.552206	0.861129	0.472527	0.267785	1.780830	0.278139	
0.527644	0.551941	0.861155	0.472461	0.267805	1.781900	0.277883	
0.530517	0.551715	0.861191	0.472402	0.267813	1.782725	0.277671	
0.531983	0.551579	0.861216	0.472367	0.267815	1.783324	0.277535	
0.534856	0.551263	0.861286	0.472286	0.267819	1.784391	0.277248	
0.539063	0.550604	0.861445	0.472118	0.267820	1.786859	0.276629	
0.543269	0.549542	0.861723	0.471854	0.267818	1.790852	0.275632	
0.546142	0.548408	0.862032	0.471573	0.267812	1.794924	0.274590	
0.547608	0.547643	0.862241	0.471383	0.267808	1.797769	0.273880	
0.550481	0.545615	0.862793	0.470875	0.267794	1.805311	0.272007	
0.554688	0.540857	0.864056	0.469659	0.267759	1.823083	0.267657	
0.558894	0.532812	0.866094	0.467540	0.267704	1.853959	0.260391	
0.561767	0.524685	0.868032	0.465334	0.267665	1.885999	0.253186	
0.563233	0.519522	0.869220	0.463905	0.267645	1.907112	0.248655	
0.566106	0.507198	0.871938	0.460411	0.267606	1.958870	0.238067	
0.570313	0.483447	0.876873	0.453424	0.267561	2.066097	0.218431	
0.574519	0.453254	0.882720	0.444134	0.267547	2.218524	0.194882	
0.577392	0.429684	0.887038	0.436606	0.267560	2.352145	0.177557	
0.578858	0.417031	0.889258	0.432464	0.267574	2.430236	0.168615	
0.581731	0.391558	0.893544	0.423927	0.267613	2.602127	0.151381	
0.585938	0.354274	0.899202	0.410927	0.267701	2.897261	0.127908	
0.590144	0.319174	0.903558	0.398113	0.267823	3.237634	0.107608	
0.593017	0.297332	0.905516	0.389815	0.267915	3.490518	0.095811	
0.594483	0.286978	0.906154	0.385789	0.267968	3.623226	0.090449	
0.597356	0.268318	0.906685	0.378349	0.268060	3.887700	0.081144	
0.601563	0.244920	0.905794	0.368658	0.268184	4.277094	0.070103	
0.605769	0.225931	0.903121	0.360429	0.268292	4.651973	0.061659	
0.608642	0.215240	0.900500	0.355612	0.268342	4.891194	0.057113	
0.610108	0.210418	0.898966	0.353381	0.268357	5.005376	0.055119	
0.612981	0.202111	0.895683	0.349458	0.268387	5.217897	0.051735	
0.617188	0.192324	0.890574	0.344676	0.268408	5.490130	0.047869	
0.621394	0.184869	0.885441	0.340864	0.268395	5.718148	0.044999	
0.624267	0.180875	0.882097	0.338751	0.268382	5.848601	0.043488	
0.625733	0.179130	0.880483	0.337807	0.268371	5.906308	0.042839	
0.628606	0.176203	0.877547	0.336206	0.268360	6.003391	0.041766	
0.632813	0.172910	0.873760	0.334331	0.268327	6.120587	0.040558	
0.637019	0.170545	0.870649	0.332937	0.268298	6.208070	0.039697	
0.639892	0.169342	0.868905	0.332211	0.268284	6.249786	0.039274	
0.641358	0.168833	0.868133	0.331900	0.268279	6.268449	0.039093	
0.644231	0.168008	0.866831	0.331381	0.268260	6.301809	0.038791	
0.648438	0.167131	0.865328	0.330822	0.268249	6.336707	0.038473	
0.652644	0.166545	0.864234	0.330441	0.268245	6.360215	0.038262	
0.655517	0.166266	0.863704	0.330244	0.268228	6.368295	0.038171	
0.656983	0.166153	0.863495	0.330170	0.268226	6.374378	0.038126	
0.659856	0.165979	0.863200	0.330053	0.268216	6.380725	0.038066	
0.664063	0.165812	0.862843	0.329943	0.268220	6.387572	0.038005	
0.668269	0.165732	0.862657	0.329912	0.268245	6.391345	0.037975	
0.671142	0.165719	0.862686	0.329908	0.268242	6.390341	0.037975	
0.672608	0.165721	0.862675	0.329915	0.268250	6.390488	0.037975	
0.675481	0.165721	0.862720	0.329923	0.268251	6.390481	0.037975	
0.679688	0.165724	0.862804	0.329959	0.268273	6.390730	0.037975	
0.683894	0.165759	0.862690	0.329971	0.268290	6.388487	0.037990	
0.686767	0.165772	0.862644	0.329984	0.268304	6.389452	0.037990	
0.688233	0.165771	0.862682	0.329994	0.268309	6.389410	0.037990	
0.691106	0.165776	0.862699	0.330014	0.268325	6.389739	0.037990	
0.695313	0.165780	0.862717	0.330040	0.268346	6.390102	0.037990	
0.699519	0.165785	0.862759	0.330068	0.268366	6.390459	0.037990	
0.702392	0.165787	0.862809	0.330086	0.268376	6.390626	0.037990	
0.703858	0.165788	0.862836	0.330094	0.268381	6.390689	0.037990	
0.706731	0.165789	0.862895	0.330110	0.268388	6.390801	0.037990	
0.710938	0.165791	0.862971	0.330133	0.268399	6.390960	0.037990	
0.715144	0.165794	0.863015	0.330155	0.268414	6.391167	0.037990	
0.718017	0.165797	0.863028	0.330170	0.268426	6.391356	0.037990	
0.719483	0.165798	0.863033	0.330178	0.268432	6.391463	0.037990	
0.722356	0.165801	0.863052	0.330193	0.268444	6.391668	0.037990	
0.726563	0.165804	0.863118	0.330218	0.268458	6.391911	0.037990	
0.730769	0.165806	0.863226	0.330246	0.268470	6.392096	0.037990	
0.733642	0.165808	0.863306	0.330268	0.268480	6.392242	0.037990	
0.735108	0.165809	0.863346	0.330279	0.268485	6.392328	0.037990	
0.737981	0.165812	0.863415	0.330304	0.268499	6.392538	0.037990	
0.742188	0.165817	0.863500	0.330341	0.268522	6.392909	0.037990	
0.746394	0.165820	0.863602	0.330372	0.268537	6.393191	0.037990	
0.749267	0.165820	0.863718	0.330387	0.268535	6.393181	0.037990	
0.750733	0.165819	0.863794	0.330393	0.268531	6.393103	0.037990	
0.753606	0.165817	0.863945	0.330407	0.268524	6.392946	0.037990	
0.757813	0.165818	0.864130	0.330438	0.268529	6.392972	0.037990	
0.762019	0.165823	0.864261	0.330485	0.268554	6.393410	0.037990	
0.764892	0.165828	0.864347	0.330522	0.268577	6.393810	0.037990	
0.766358	0.165833	0.864371	0.330545	0.268595	6.394167	0.037990	
0.769231	0.165871	0.864281	0.330586	0.268635	6.392183	0.038005	
0.773438	0.165896	0.864273	0.330659	0.268699	6.394045	0.038005	
0.777644	0.165903	0.864449	0.330718	0.268730	6.394590	0.038005	
0.780517	0.165908	0.864586	0.330763	0.268754	6.395012	0.038005	
0.781983	0.165911	0.864673	0.330789	0.268766	6.395212	0.038005	
0.784856	0.165918	0.864817	0.330843	0.268797	6.395760	0.038005	
0.789063	0.165934	0.865138	0.330954	0.268856	6.397007	0.038005	
0.793269	0.165955	0.865519	0.331100	0.268940	6.398587	0.038005	
0.796142	0.165963	0.865571	0.331158	0.268988	6.399225	0.038005	
0.797608	0.165960	0.865363	0.331142	0.269002	6.398999	0.038005	
0.800481	0.165931	0.864947	0.331023	0.268954	6.396797	0.038005	
0.804688	0.165830	0.863854	0.330579	0.268704	6.398907	0.037975	
0.808894	0.165621	0.860935	0.329546	0.268167	6.392672	0.037945	
0.811767	0.165378	0.857118	0.328241	0.267494	6.383834	0.037915	
0.813233	0.165196	0.854911	0.327289	0.266920	6.379701	0.037884	
0.816106	0.164639	0.847307	0.324568	0.265469	6.366338	0.037794	
0.820313	0.163294	0.826945	0.317355	0.261522	6.321692	0.037612	
0.824519	0.160503	0.786256	0.302954	0.253342	6.233718	0.037220	
0.827392	0.156950	0.728288	0.284161	0.242537	6.104798	0.036767	
0.828858	0.154375	0.685044	0.270403	0.234180	5.992221	0.036495	
0.831731	0.145857	0.541087	0.226314	0.204963	5.553563	0.035800	
0.835938	0.130387	0.217475	0.144455	0.141371	4.281563	0.036465	
0.840144	0.122217	0.017386	0.102453	0.102434	3.307118	0.038957	
0.843017	0.122018	0.011874	0.100740	0.100731	3.256911	0.039198	
0.844483	0.122411	0.017119	0.101469	0.101451	3.270595	0.039244	
0.847356	0.121626	0.001560	0.099044	0.099044	3.214321	0.039334	
0.851563	0.121593	-0.000560	0.098494	0.098494	3.195818	0.039440	
0.855769	0.121661	0.001127	0.098780	0.098780	3.204179	0.039410	
0.858642	0.121571	-0.000417	0.098575	0.098575	3.199422	0.039410	
0.860108	0.121593	-0.000458	0.098504	0.098504	3.195837	0.039440	
0.862981	0.121621	0.000197	0.098618	0.098618	3.199666	0.039425	
0.867188	0.121606	-0.000037	0.098592	0.098592	3.198908	0.039425	
0.871394	0.121609	-0.000006	0.098592	0.098592	3.199072	0.039425	
0.874267	0.121613	0.000070	0.098604	0.098604	3.199244	0.039425	
0.875733	0.121607	-0.000030	0.098592	0.098592	3.198945	0.039425	
0.878606	0.121609	-0.000007	0.098593	0.098593	3.199048	0.039425	
0.882813	0.121609	0.000005	0.098595	0.098595	3.199070	0.039425	
0.887019	0.121609	-0.000003	0.098594	0.098594	3.199049	0.039425	
0.889892	0.121609	0.000001	0.098594	0.098594	3.199065	0.039425	
0.891358	0.121609	0.000003	0.098595	0.098595	3.199065	0.039425	
0.894231	0.121609	-0.000001	0.098594	0.098594	3.199056	0.039425	
0.898438	0.121609	0.000000	0.098594	0.098594	3.199059	0.039425	
0.902644	0.121609	0.000000	0.098594	0.098594	3.199059	0.039425	
0.905517	0.121609	-0.000000	0.098594	0.098594	3.199058	0.039425	
0.906983	0.121609	0.000000	0.098594	0.098594	3.199059	0.039425	
0.909856	0.121609	0.000000	0.098594	0.098594	3.199059	0.039425	
0.914063	0.121609	-0.000000	0.098594	0.098594	3.199059	0.039425	
0.918269	0.121609	0.000000	0.098594	0.098594	3.199059	0.039425	
0.921142	0.121609	0.000000	0.098594	0.098594	3.199059	0.039425	
0.922608	0.121609	-0.000000	0.098594	0.098594	3.199059	0.039425	
0.925481	0.121609	0.000000	0.098594	0.098594	3.199059	0.039425	
0.929688	0.121609	-0.000000	0.098594	0.098594	3.199059	0.039425	
0.933894	0.121609	-0.000000	0.098594	0.098594	3.199059	0.039425	
0.936767	0.121609	0.000000	0.098594	0.098594	3.199059	0.039425	
0.938233	0.121609	-0.000000	0.098594	0.098594	3.199059	0.039425	
0.941106	0.121609	-0.000000	0.098594	0.098594	3.199059	0.039425	
0.945313	0.121609	0.000000	0.098594	0.098594	3.199059	0.039425	
0.949519	0.121609	-0.000000	0.098594	0.098594	3.199059	0.039425	
0.952392	0.121609	0.000000	0.098594	0.098594	3.199059	0.039425	
0.953858	0.121609	0.000000	0.098594	0.098594	3.199059	0.039425	
0.956731	0.121609	0.000000	0.098594	0.098594	3.199059	0.039425	
0.960938	0.121609	0.000000	0.098594	0.098594	3.199059	0.039425	
0.965144	0.121609	0.000000	0.098594	0.098594	3.199059	0.039425	
0.968017	0.121609	0.000000	0.098594	0.098594	3.199059	0.039425	
0.969483	0.121609	0.000000	0.098594	0.098594	3.199059	0.039425	
0.972356	0.121609	0.000000	0.098594	0.098594	3.199059	0.039425	
0.976563	0.121609	0.000000	0.098594	0.098594	3.199059	0.039425	
0.980769	0.121609	0.000000	0.098594	0.098594	3.199059	0.039425	
0.983642	0.121609	0.000000	0.098594	0.098594	3.199059	0.039425	
0.985108	0.121609	0.000000	0.098594	0.098594	3.199059	0.039425	
0.987981	0.121609	0.000000	0.098594	0.098594	3.199059	0.039425	
0.992188	0.121609	0.000000	0.098594	0.098594	3.199059	0.039425	
0.996394	0.121609	0.000000	0.098594	0.098594	3.199059	0.039425	
0.999267	0.121609	0.000000	0.098594	0.098594	3.199059	0.039425	
